<?xml version="1.0"?>
<VTKFile type="StructuredGrid">
<StructuredGrid WholeExtent="0 29 0 29 0 0 ">
<Piece Extent="0 29 0 29 0 0 ">
<Points>
<DataArray type="Float64" Name="coordinate" NumberOfComponents="3" format="ascii">
-2.00000000000000000e+00 -2.00000000000000000e+00 0 
-1.86206896551724133e+00 -2.00000000000000000e+00 0 
-1.72413793103448265e+00 -2.00000000000000000e+00 0 
-1.58620689655172420e+00 -2.00000000000000000e+00 0 
-1.44827586206896552e+00 -2.00000000000000000e+00 0 
-1.31034482758620685e+00 -2.00000000000000000e+00 0 
-1.17241379310344840e+00 -2.00000000000000000e+00 0 
-1.03448275862068950e+00 -2.00000000000000000e+00 0 
-8.96551724137931050e-01 -2.00000000000000000e+00 0 
-7.58620689655172376e-01 -2.00000000000000000e+00 0 
-6.20689655172413701e-01 -2.00000000000000000e+00 0 
-4.82758620689655249e-01 -2.00000000000000000e+00 0 
-3.44827586206896575e-01 -2.00000000000000000e+00 0 
-2.06896551724137900e-01 -2.00000000000000000e+00 0 
-6.89655172413792261e-02 -2.00000000000000000e+00 0 
6.89655172413794482e-02 -2.00000000000000000e+00 0 
2.06896551724137900e-01 -2.00000000000000000e+00 0 
3.44827586206896353e-01 -2.00000000000000000e+00 0 
4.82758620689655249e-01 -2.00000000000000000e+00 0 
6.20689655172413701e-01 -2.00000000000000000e+00 0 
7.58620689655172598e-01 -2.00000000000000000e+00 0 
8.96551724137931050e-01 -2.00000000000000000e+00 0 
1.03448275862068950e+00 -2.00000000000000000e+00 0 
1.17241379310344840e+00 -2.00000000000000000e+00 0 
1.31034482758620685e+00 -2.00000000000000000e+00 0 
1.44827586206896530e+00 -2.00000000000000000e+00 0 
1.58620689655172420e+00 -2.00000000000000000e+00 0 
1.72413793103448265e+00 -2.00000000000000000e+00 0 
1.86206896551724155e+00 -2.00000000000000000e+00 0 
2.00000000000000000e+00 -2.00000000000000000e+00 0 
-2.00000000000000000e+00 -1.86206896551724133e+00 0 
-1.86206896551724133e+00 -1.86206896551724133e+00 0 
-1.72413793103448265e+00 -1.86206896551724133e+00 0 
-1.58620689655172420e+00 -1.86206896551724133e+00 0 
-1.44827586206896552e+00 -1.86206896551724133e+00 0 
-1.31034482758620685e+00 -1.86206896551724133e+00 0 
-1.17241379310344840e+00 -1.86206896551724133e+00 0 
-1.03448275862068950e+00 -1.86206896551724133e+00 0 
-8.96551724137931050e-01 -1.86206896551724133e+00 0 
-7.58620689655172376e-01 -1.86206896551724133e+00 0 
-6.20689655172413701e-01 -1.86206896551724133e+00 0 
-4.82758620689655249e-01 -1.86206896551724133e+00 0 
-3.44827586206896575e-01 -1.86206896551724133e+00 0 
-2.06896551724137900e-01 -1.86206896551724133e+00 0 
-6.89655172413792261e-02 -1.86206896551724133e+00 0 
6.89655172413794482e-02 -1.86206896551724133e+00 0 
2.06896551724137900e-01 -1.86206896551724133e+00 0 
3.44827586206896353e-01 -1.86206896551724133e+00 0 
4.82758620689655249e-01 -1.86206896551724133e+00 0 
6.20689655172413701e-01 -1.86206896551724133e+00 0 
7.58620689655172598e-01 -1.86206896551724133e+00 0 
8.96551724137931050e-01 -1.86206896551724133e+00 0 
1.03448275862068950e+00 -1.86206896551724133e+00 0 
1.17241379310344840e+00 -1.86206896551724133e+00 0 
1.31034482758620685e+00 -1.86206896551724133e+00 0 
1.44827586206896530e+00 -1.86206896551724133e+00 0 
1.58620689655172420e+00 -1.86206896551724133e+00 0 
1.72413793103448265e+00 -1.86206896551724133e+00 0 
1.86206896551724155e+00 -1.86206896551724133e+00 0 
2.00000000000000000e+00 -1.86206896551724133e+00 0 
-2.00000000000000000e+00 -1.72413793103448265e+00 0 
-1.86206896551724133e+00 -1.72413793103448265e+00 0 
-1.72413793103448265e+00 -1.72413793103448265e+00 0 
-1.58620689655172420e+00 -1.72413793103448265e+00 0 
-1.44827586206896552e+00 -1.72413793103448265e+00 0 
-1.31034482758620685e+00 -1.72413793103448265e+00 0 
-1.17241379310344840e+00 -1.72413793103448265e+00 0 
-1.03448275862068950e+00 -1.72413793103448265e+00 0 
-8.96551724137931050e-01 -1.72413793103448265e+00 0 
-7.58620689655172376e-01 -1.72413793103448265e+00 0 
-6.20689655172413701e-01 -1.72413793103448265e+00 0 
-4.82758620689655249e-01 -1.72413793103448265e+00 0 
-3.44827586206896575e-01 -1.72413793103448265e+00 0 
-2.06896551724137900e-01 -1.72413793103448265e+00 0 
-6.89655172413792261e-02 -1.72413793103448265e+00 0 
6.89655172413794482e-02 -1.72413793103448265e+00 0 
2.06896551724137900e-01 -1.72413793103448265e+00 0 
3.44827586206896353e-01 -1.72413793103448265e+00 0 
4.82758620689655249e-01 -1.72413793103448265e+00 0 
6.20689655172413701e-01 -1.72413793103448265e+00 0 
7.58620689655172598e-01 -1.72413793103448265e+00 0 
8.96551724137931050e-01 -1.72413793103448265e+00 0 
1.03448275862068950e+00 -1.72413793103448265e+00 0 
1.17241379310344840e+00 -1.72413793103448265e+00 0 
1.31034482758620685e+00 -1.72413793103448265e+00 0 
1.44827586206896530e+00 -1.72413793103448265e+00 0 
1.58620689655172420e+00 -1.72413793103448265e+00 0 
1.72413793103448265e+00 -1.72413793103448265e+00 0 
1.86206896551724155e+00 -1.72413793103448265e+00 0 
2.00000000000000000e+00 -1.72413793103448265e+00 0 
-2.00000000000000000e+00 -1.58620689655172420e+00 0 
-1.86206896551724133e+00 -1.58620689655172420e+00 0 
-1.72413793103448265e+00 -1.58620689655172420e+00 0 
-1.58620689655172420e+00 -1.58620689655172420e+00 0 
-1.44827586206896552e+00 -1.58620689655172420e+00 0 
-1.31034482758620685e+00 -1.58620689655172420e+00 0 
-1.17241379310344840e+00 -1.58620689655172420e+00 0 
-1.03448275862068950e+00 -1.58620689655172420e+00 0 
-8.96551724137931050e-01 -1.58620689655172420e+00 0 
-7.58620689655172376e-01 -1.58620689655172420e+00 0 
-6.20689655172413701e-01 -1.58620689655172420e+00 0 
-4.82758620689655249e-01 -1.58620689655172420e+00 0 
-3.44827586206896575e-01 -1.58620689655172420e+00 0 
-2.06896551724137900e-01 -1.58620689655172420e+00 0 
-6.89655172413792261e-02 -1.58620689655172420e+00 0 
6.89655172413794482e-02 -1.58620689655172420e+00 0 
2.06896551724137900e-01 -1.58620689655172420e+00 0 
3.44827586206896353e-01 -1.58620689655172420e+00 0 
4.82758620689655249e-01 -1.58620689655172420e+00 0 
6.20689655172413701e-01 -1.58620689655172420e+00 0 
7.58620689655172598e-01 -1.58620689655172420e+00 0 
8.96551724137931050e-01 -1.58620689655172420e+00 0 
1.03448275862068950e+00 -1.58620689655172420e+00 0 
1.17241379310344840e+00 -1.58620689655172420e+00 0 
1.31034482758620685e+00 -1.58620689655172420e+00 0 
1.44827586206896530e+00 -1.58620689655172420e+00 0 
1.58620689655172420e+00 -1.58620689655172420e+00 0 
1.72413793103448265e+00 -1.58620689655172420e+00 0 
1.86206896551724155e+00 -1.58620689655172420e+00 0 
2.00000000000000000e+00 -1.58620689655172420e+00 0 
-2.00000000000000000e+00 -1.44827586206896552e+00 0 
-1.86206896551724133e+00 -1.44827586206896552e+00 0 
-1.72413793103448265e+00 -1.44827586206896552e+00 0 
-1.58620689655172420e+00 -1.44827586206896552e+00 0 
-1.44827586206896552e+00 -1.44827586206896552e+00 0 
-1.31034482758620685e+00 -1.44827586206896552e+00 0 
-1.17241379310344840e+00 -1.44827586206896552e+00 0 
-1.03448275862068950e+00 -1.44827586206896552e+00 0 
-8.96551724137931050e-01 -1.44827586206896552e+00 0 
-7.58620689655172376e-01 -1.44827586206896552e+00 0 
-6.20689655172413701e-01 -1.44827586206896552e+00 0 
-4.82758620689655249e-01 -1.44827586206896552e+00 0 
-3.44827586206896575e-01 -1.44827586206896552e+00 0 
-2.06896551724137900e-01 -1.44827586206896552e+00 0 
-6.89655172413792261e-02 -1.44827586206896552e+00 0 
6.89655172413794482e-02 -1.44827586206896552e+00 0 
2.06896551724137900e-01 -1.44827586206896552e+00 0 
3.44827586206896353e-01 -1.44827586206896552e+00 0 
4.82758620689655249e-01 -1.44827586206896552e+00 0 
6.20689655172413701e-01 -1.44827586206896552e+00 0 
7.58620689655172598e-01 -1.44827586206896552e+00 0 
8.96551724137931050e-01 -1.44827586206896552e+00 0 
1.03448275862068950e+00 -1.44827586206896552e+00 0 
1.17241379310344840e+00 -1.44827586206896552e+00 0 
1.31034482758620685e+00 -1.44827586206896552e+00 0 
1.44827586206896530e+00 -1.44827586206896552e+00 0 
1.58620689655172420e+00 -1.44827586206896552e+00 0 
1.72413793103448265e+00 -1.44827586206896552e+00 0 
1.86206896551724155e+00 -1.44827586206896552e+00 0 
2.00000000000000000e+00 -1.44827586206896552e+00 0 
-2.00000000000000000e+00 -1.31034482758620685e+00 0 
-1.86206896551724133e+00 -1.31034482758620685e+00 0 
-1.72413793103448265e+00 -1.31034482758620685e+00 0 
-1.58620689655172420e+00 -1.31034482758620685e+00 0 
-1.44827586206896552e+00 -1.31034482758620685e+00 0 
-1.31034482758620685e+00 -1.31034482758620685e+00 0 
-1.17241379310344840e+00 -1.31034482758620685e+00 0 
-1.03448275862068950e+00 -1.31034482758620685e+00 0 
-8.96551724137931050e-01 -1.31034482758620685e+00 0 
-7.58620689655172376e-01 -1.31034482758620685e+00 0 
-6.20689655172413701e-01 -1.31034482758620685e+00 0 
-4.82758620689655249e-01 -1.31034482758620685e+00 0 
-3.44827586206896575e-01 -1.31034482758620685e+00 0 
-2.06896551724137900e-01 -1.31034482758620685e+00 0 
-6.89655172413792261e-02 -1.31034482758620685e+00 0 
6.89655172413794482e-02 -1.31034482758620685e+00 0 
2.06896551724137900e-01 -1.31034482758620685e+00 0 
3.44827586206896353e-01 -1.31034482758620685e+00 0 
4.82758620689655249e-01 -1.31034482758620685e+00 0 
6.20689655172413701e-01 -1.31034482758620685e+00 0 
7.58620689655172598e-01 -1.31034482758620685e+00 0 
8.96551724137931050e-01 -1.31034482758620685e+00 0 
1.03448275862068950e+00 -1.31034482758620685e+00 0 
1.17241379310344840e+00 -1.31034482758620685e+00 0 
1.31034482758620685e+00 -1.31034482758620685e+00 0 
1.44827586206896530e+00 -1.31034482758620685e+00 0 
1.58620689655172420e+00 -1.31034482758620685e+00 0 
1.72413793103448265e+00 -1.31034482758620685e+00 0 
1.86206896551724155e+00 -1.31034482758620685e+00 0 
2.00000000000000000e+00 -1.31034482758620685e+00 0 
-2.00000000000000000e+00 -1.17241379310344840e+00 0 
-1.86206896551724133e+00 -1.17241379310344840e+00 0 
-1.72413793103448265e+00 -1.17241379310344840e+00 0 
-1.58620689655172420e+00 -1.17241379310344840e+00 0 
-1.44827586206896552e+00 -1.17241379310344840e+00 0 
-1.31034482758620685e+00 -1.17241379310344840e+00 0 
[...]
<PointData>
<DataArray type="Float64" Name="gaussian_hill" NumberOfComponents="1" format="ascii">
1.22884247066564196e-05
2.09336289428857559e-05
3.43295374346114110e-05
5.41959086728680410e-05
8.23645203466502889e-05
1.20500532419772022e-04
1.69712127878360764e-04
2.30097506557738345e-04
3.00321252826932119e-04
3.77342169699111229e-04
4.56414820688831548e-04
5.31446137804499129e-04
5.95708631565090288e-04
6.42811520072690827e-04
6.67741749309121277e-04
6.67741749309121277e-04
6.42811520072690827e-04
5.95708631565090288e-04
5.31446137804499129e-04
4.56414820688831548e-04
3.77342169699111229e-04
3.00321252826932119e-04
2.30097506557738345e-04
1.69712127878360764e-04
1.20500532419772022e-04
8.23645203466504379e-05
5.41959086728680410e-05
3.43295374346114110e-05
2.09336289428857559e-05
1.22884247066564196e-05
3.56609436261630825e-05
6.07492806802885653e-05
9.96241364041391438e-05
1.57276240859817744e-04
2.39021403230540335e-04
3.49691908940649753e-04
4.92503699165613355e-04
6.67741749309121277e-04
8.71530690259966615e-04
1.09504498441732553e-03
1.32451340015235942e-03
1.54225388631973716e-03
1.72874330396101958e-03
1.86543563774641398e-03
1.93778303137987894e-03
1.93778303137987894e-03
1.86543563774641398e-03
1.72874330396101958e-03
1.54225388631973716e-03
1.32451340015235942e-03
1.09504498441732553e-03
8.71530690259966615e-04
6.67741749309121277e-04
4.92503699165613355e-04
3.49691908940649753e-04
2.39021403230540335e-04
1.57276240859817744e-04
9.96241364041391438e-05
6.07492806802885653e-05
3.56609436261630825e-05
9.59046556908150068e-05
1.63375902449012817e-04
2.67923883352431990e-04
4.22970403871766865e-04
6.42811520072690827e-04
9.40442924797199099e-04
1.32451340015235942e-03
1.79578934391658976e-03
2.34384854336939629e-03
2.94495606446735884e-03
3.56207628522448635e-03
4.14765603248929120e-03
4.64919080892033706e-03
5.01680394178326879e-03
5.21137119578758603e-03
5.21137119578758603e-03
5.01680394178326879e-03
4.64919080892033706e-03
4.14765603248929120e-03
3.56207628522448635e-03
2.94495606446735884e-03
2.34384854336939629e-03
1.79578934391658976e-03
1.32451340015235942e-03
9.40442924797199099e-04
6.42811520072692020e-04
4.22970403871766865e-04
2.67923883352431990e-04
1.63375902449012519e-04
9.59046556908150068e-05
2.39021403230539901e-04
4.07178746184256213e-04
6.67741749309121277e-04
1.05416133064852404e-03
1.60206728686734866e-03
2.34384854336939239e-03
3.30106030016633859e-03
4.47561263629563718e-03
5.84153046336065469e-03
7.33965964332940982e-03
8.87769697910638540e-03
1.03371265749526240e-02
1.15870924412389727e-02
1.25032878671017898e-02
1.29882042430570274e-02
1.29882042430570274e-02
1.25032878671017898e-02
1.15870924412389727e-02
1.03371265749526240e-02
8.87769697910638540e-03
7.33965964332940982e-03
5.84153046336065469e-03
4.47561263629563718e-03
3.30106030016633859e-03
2.34384854336939239e-03
1.60206728686734866e-03
1.05416133064852404e-03
6.67741749309121277e-04
4.07178746184256213e-04
2.39021403230539901e-04
5.52057271283848579e-04
9.40442924797197364e-04
1.54225388631973716e-03
2.43475027685896355e-03
3.70022467798859691e-03
5.41348437280784328e-03
7.62431446315107661e-03
1.03371265749526240e-02
1.34919271836670251e-02
1.69520905663016544e-02
2.05044280693275315e-02
2.38752087166851437e-02
2.67622001576751679e-02
2.88782966240519676e-02
2.99982867491726847e-02
2.99982867491726847e-02
2.88782966240519676e-02
2.67622001576751679e-02
2.38752087166851437e-02
2.05044280693275315e-02
1.69520905663016544e-02
1.34919271836670251e-02
1.03371265749526240e-02
7.62431446315107661e-03
5.41348437280784328e-03
3.70022467798859691e-03
2.43475027685896355e-03
1.54225388631973716e-03
9.40442924797197364e-04
5.52057271283848579e-04
1.18163057186517146e-03
2.01293628186503468e-03
3.30106030016634466e-03
5.21137119578758169e-03
7.92000908187150479e-03
1.15870924412389831e-02
1.63191819541145394e-02
2.21257203220924098e-02
2.88782966240519676e-02
3.62844753834786551e-02
4.38879448304018913e-02
5.11028076193774522e-02
5.72821616915618961e-02
6.18114821221609212e-02
6.42087235695057851e-02
6.42087235695057851e-02
6.18114821221609212e-02
5.72821616915618961e-02
5.11028076193774522e-02
4.38879448304018913e-02
3.62844753834786204e-02
2.88782966240519676e-02
2.21257203220924098e-02
1.63191819541145394e-02
1.15870924412389831e-02
7.92000908187151173e-03
5.21137119578758169e-03
3.30106030016634466e-03
2.01293628186503468e-03
1.18163057186517146e-03
2.34384854336939239e-03
3.99280272911143111e-03
6.54788862131966843e-03
1.03371265749526240e-02
1.57099030712409722e-02
2.29838245446000004e-02
3.23702617068847079e-02
4.38879448304018496e-02
5.72821616915618476e-02
7.19728456587300780e-02
8.70548697803590205e-02
1.01366064870595698e-01
1.13623254542145460e-01
1.22607484763064364e-01
1.27362584206365759e-01
1.27362584206365759e-01
1.22607484763064364e-01
1.13623254542145460e-01
1.01366064870595698e-01
8.70548697803590205e-02
7.19728456587300780e-02
5.72821616915618476e-02
4.38879448304018496e-02
3.23702617068847079e-02
2.29838245446000004e-02
1.57099030712409722e-02
1.03371265749526240e-02
6.54788862131966843e-03
3.99280272911143111e-03
2.34384854336939239e-03
4.30851502840792246e-03
7.33965964332941589e-03
1.20364759101462288e-02
1.90019382117213552e-02
2.88782966240519919e-02
4.22493824273923527e-02
5.95037420110425402e-02
8.06758057821840707e-02
1.05297356011322590e-01
1.32302101189586546e-01
1.60026216628136070e-01
1.86333376830613656e-01
2.08864818145503950e-01
2.25379831897143418e-01
2.34120762479452571e-01
2.34120762479452571e-01
2.25379831897143418e-01
2.08864818145503950e-01
1.86333376830613656e-01
1.60026216628136070e-01
1.32302101189586546e-01
1.05297356011322590e-01
8.06758057821840707e-02
5.95037420110425402e-02
4.22493824273923527e-02
2.88782966240519919e-02
1.90019382117213552e-02
1.20364759101462288e-02
7.33965964332941589e-03
4.30851502840792246e-03
7.33965964332941589e-03
1.25032878671017898e-02
2.05044280693275488e-02
3.23702617068847079e-02
4.91948773306176493e-02
7.19728456587301335e-02
1.01366064870595698e-01
1.37433187998274781e-01
1.79376594805838618e-01
2.25379831897143335e-01
2.72608533640007922e-01
3.17423417839234001e-01
3.55806273517946581e-01
3.83939999208287308e-01
3.98830386039275064e-01
3.98830386039275064e-01
3.83939999208287308e-01
3.55806273517946636e-01
3.17423417839234001e-01
2.72608533640007922e-01
2.25379831897143224e-01
1.79376594805838618e-01
1.37433187998274781e-01
1.01366064870595698e-01
7.19728456587301335e-02
4.91948773306176909e-02
3.23702617068847079e-02
2.05044280693275488e-02
1.25032878671017898e-02
7.33965964332941589e-03
1.15870924412389727e-02
1.97388924522133892e-02
3.23702617068847634e-02
5.11028076193774314e-02
7.76637635756504685e-02
1.13623254542145613e-01
1.60026216628135903e-01
2.16965245149680852e-01
2.83181140108983709e-01
3.55806273517946747e-01
4.30366043257628617e-01
5.01115128527787057e-01
5.61709995118389704e-01
6.06124599627565930e-01
6.29631996030241337e-01
6.29631996030241337e-01
6.06124599627565930e-01
5.61709995118389815e-01
5.01115128527787057e-01
4.30366043257628617e-01
3.55806273517946636e-01
2.83181140108983709e-01
2.16965245149680852e-01
1.60026216628135903e-01
1.13623254542145613e-01
7.76637635756505379e-02
5.11028076193774314e-02
3.23702617068847634e-02
1.97388924522133892e-02
1.15870924412389727e-02
1.69520905663016683e-02
2.88782966240519676e-02
4.73581798792762007e-02
7.47641763754968297e-02
1.13623254542145571e-01
1.66232530827245262e-01
2.34120762479452460e-01
3.17423417839234279e-01
4.14298268365480116e-01
5.20549931168891589e-01
6.29631996030241337e-01
7.33138972181929138e-01
8.21790173637868215e-01
8.86769408240877577e-01
9.21161082840609713e-01
9.21161082840609602e-01
8.86769408240877577e-01
8.21790173637868326e-01
7.33138972181929138e-01
6.29631996030241337e-01
5.20549931168891478e-01
4.14298268365480116e-01
3.17423417839234279e-01
2.34120762479452460e-01
1.66232530827245262e-01
1.13623254542145669e-01
7.47641763754968297e-02
4.73581798792762007e-02
2.88782966240519676e-02
1.69520905663016683e-02
2.29838245446000213e-02
3.91535014609663071e-02
6.42087235695058128e-02
1.01366064870595698e-01
1.54051616015689674e-01
2.25379831897143335e-01
3.17423417839233946e-01
4.30366043257628506e-01
5.61709995118389482e-01
7.05767128714649417e-01
8.53661751500569554e-01
9.93997609765836954e-01
1.11419185082195993e+00
1.20229138764998877e+00
1.24891998556265715e+00
1.24891998556265715e+00
1.20229138764998877e+00
1.11419185082196037e+00
9.93997609765836954e-01
8.53661751500569554e-01
7.05767128714649083e-01
5.61709995118389482e-01
4.30366043257628506e-01
3.17423417839233946e-01
2.25379831897143335e-01
1.54051616015689813e-01
1.01366064870595698e-01
6.42087235695058128e-02
3.91535014609663071e-02
2.29838245446000213e-02
2.88782966240519676e-02
4.91948773306176701e-02
8.06758057821840430e-02
1.27362584206365814e-01
1.93559964490803732e-01
2.83181140108983709e-01
3.98830386039274898e-01
5.40738475878826508e-01
7.05767128714649417e-01
8.86769408240877466e-01
1.07259334618585811e+00
1.24891998556265715e+00
1.39993945314456725e+00
1.51063315218601524e+00
1.56922020235569892e+00
1.56922020235569892e+00
1.51063315218601524e+00
1.39993945314456747e+00
1.24891998556265715e+00
1.07259334618585811e+00
8.86769408240877133e-01
7.05767128714649417e-01
5.40738475878826508e-01
3.98830386039274898e-01
2.83181140108983709e-01
1.93559964490803899e-01
1.27362584206365814e-01
8.06758057821840430e-02
4.91948773306176493e-02
2.88782966240519676e-02
3.36256810943665052e-02
5.72821616915618961e-02
9.39383285856053435e-02
1.48300077931561608e-01
2.25379831897143335e-01
3.29734084846024234e-01
4.64395235850930566e-01
6.29631996030241337e-01
8.21790173637867993e-01
1.03254792739101675e+00
1.24891998556265760e+00
1.45423345752095234e+00
1.63007944047691677e+00
1.75897038829076524e+00
1.82718872855203429e+00
1.82718872855203429e+00
1.75897038829076524e+00
1.63007944047691700e+00
1.45423345752095234e+00
1.24891998556265760e+00
1.03254792739101631e+00
8.21790173637867993e-01
6.29631996030241337e-01
4.64395235850930566e-01
3.29734084846024234e-01
2.25379831897143529e-01
1.48300077931561608e-01
9.39383285856053435e-02
5.72821616915618684e-02
3.36256810943665052e-02
3.62844753834786204e-02
6.18114821221609212e-02
1.01366064870595837e-01
1.60026216628135903e-01
2.43200693525119915e-01
3.55806273517946747e-01
5.01115128527786835e-01
6.79417216754526931e-01
8.86769408240877355e-01
1.11419185082196037e+00
1.34767252282288585e+00
1.56922020235569892e+00
1.75897038829076524e+00
1.89805278813807532e+00
1.97166517626979054e+00
1.97166517626979032e+00
1.89805278813807532e+00
1.75897038829076546e+00
1.56922020235569892e+00
1.34767252282288585e+00
1.11419185082195993e+00
8.86769408240877355e-01
6.79417216754526931e-01
5.01115128527786835e-01
3.55806273517946747e-01
2.43200693525120137e-01
1.60026216628135903e-01
1.01366064870595837e-01
6.18114821221608934e-02
3.62844753834786204e-02
3.62844753834786204e-02
6.18114821221609212e-02
1.01366064870595837e-01
1.60026216628135903e-01
2.43200693525119915e-01
3.55806273517946636e-01
5.01115128527786724e-01
6.79417216754526709e-01
8.86769408240877355e-01
1.11419185082196037e+00
1.34767252282288585e+00
1.56922020235569870e+00
1.75897038829076524e+00
1.89805278813807510e+00
1.97166517626979032e+00
1.97166517626979032e+00
1.89805278813807510e+00
1.75897038829076546e+00
1.56922020235569870e+00
1.34767252282288585e+00
1.11419185082195993e+00
8.86769408240877355e-01
6.79417216754526709e-01
5.01115128527786724e-01
3.55806273517946636e-01
2.43200693525120137e-01
1.60026216628135903e-01
1.01366064870595837e-01
6.18114821221608934e-02
3.62844753834786204e-02
3.36256810943665052e-02
5.72821616915618961e-02
9.39383285856053435e-02
1.48300077931561608e-01
2.25379831897143335e-01
3.29734084846024234e-01
4.64395235850930566e-01
6.29631996030241337e-01
8.21790173637867993e-01
1.03254792739101675e+00
1.24891998556265760e+00
1.45423345752095234e+00
1.63007944047691677e+00
1.75897038829076524e+00
1.82718872855203429e+00
1.82718872855203429e+00
1.75897038829076524e+00
1.63007944047691700e+00
1.45423345752095234e+00
1.24891998556265760e+00
1.03254792739101631e+00
8.21790173637867993e-01
6.29631996030241337e-01
4.64395235850930566e-01
3.29734084846024234e-01
2.25379831897143529e-01
1.48300077931561608e-01
9.39383285856053435e-02
5.72821616915618684e-02
3.36256810943665052e-02
2.88782966240519676e-02
4.91948773306176909e-02
8.06758057821840707e-02
1.27362584206365897e-01
1.93559964490803815e-01
2.83181140108983764e-01
3.98830386039275064e-01
5.40738475878826730e-01
7.05767128714649528e-01
8.86769408240877799e-01
1.07259334618585833e+00
1.24891998556265760e+00
1.39993945314456747e+00
1.51063315218601568e+00
1.56922020235569937e+00
1.56922020235569937e+00
1.51063315218601568e+00
1.39993945314456769e+00
1.24891998556265760e+00
1.07259334618585833e+00
8.86769408240877466e-01
7.05767128714649528e-01
5.40738475878826730e-01
3.98830386039275064e-01
2.83181140108983764e-01
1.93559964490803982e-01
1.27362584206365897e-01
8.06758057821840707e-02
4.91948773306176701e-02
2.88782966240519676e-02
2.29838245446000213e-02
3.91535014609663071e-02
6.42087235695058128e-02
1.01366064870595698e-01
1.54051616015689674e-01
2.25379831897143335e-01
3.17423417839233946e-01
4.30366043257628506e-01
5.61709995118389482e-01
7.05767128714649417e-01
8.53661751500569554e-01
9.93997609765836954e-01
1.11419185082195993e+00
1.20229138764998877e+00
1.24891998556265715e+00
1.24891998556265715e+00
1.20229138764998877e+00
1.11419185082196037e+00
9.93997609765836954e-01
8.53661751500569554e-01
7.05767128714649083e-01
5.61709995118389482e-01
4.30366043257628506e-01
3.17423417839233946e-01
2.25379831897143335e-01
1.54051616015689813e-01
1.01366064870595698e-01
6.42087235695058128e-02
3.91535014609663071e-02
2.29838245446000213e-02
1.69520905663016683e-02
2.88782966240519676e-02
4.73581798792762007e-02
7.47641763754968297e-02
1.13623254542145571e-01
1.66232530827245262e-01
2.34120762479452460e-01
3.17423417839234279e-01
4.14298268365480116e-01
5.20549931168891589e-01
6.29631996030241337e-01
7.33138972181929138e-01
8.21790173637868215e-01
8.86769408240877577e-01
9.21161082840609713e-01
9.21161082840609602e-01
8.86769408240877577e-01
8.21790173637868326e-01
7.33138972181929138e-01
6.29631996030241337e-01
5.20549931168891478e-01
4.14298268365480116e-01
3.17423417839234279e-01
2.34120762479452460e-01
1.66232530827245262e-01
1.13623254542145669e-01
7.47641763754968297e-02
4.73581798792762007e-02
2.88782966240519676e-02
1.69520905663016683e-02
1.15870924412389727e-02
1.97388924522133719e-02
3.23702617068847356e-02
5.11028076193773828e-02
7.76637635756503991e-02
1.13623254542145516e-01
1.60026216628135765e-01
2.16965245149680658e-01
2.83181140108983431e-01
3.55806273517946525e-01
4.30366043257628283e-01
5.01115128527786613e-01
5.61709995118389371e-01
6.06124599627565597e-01
6.29631996030240892e-01
6.29631996030240892e-01
6.06124599627565597e-01
5.61709995118389482e-01
5.01115128527786613e-01
4.30366043257628283e-01
3.55806273517946359e-01
2.83181140108983431e-01
2.16965245149680658e-01
1.60026216628135765e-01
1.13623254542145516e-01
7.76637635756504685e-02
5.11028076193773828e-02
3.23702617068847356e-02
1.97388924522133719e-02
1.15870924412389727e-02
7.33965964332941589e-03
1.25032878671017898e-02
2.05044280693275488e-02
3.23702617068847079e-02
4.91948773306176493e-02
7.19728456587301335e-02
1.01366064870595698e-01
1.37433187998274781e-01
1.79376594805838618e-01
2.25379831897143335e-01
2.72608533640007922e-01
3.17423417839234001e-01
3.55806273517946581e-01
3.83939999208287308e-01
3.98830386039275064e-01
3.98830386039275064e-01
3.83939999208287308e-01
3.55806273517946636e-01
3.17423417839234001e-01
2.72608533640007922e-01
2.25379831897143224e-01
1.79376594805838618e-01
1.37433187998274781e-01
1.01366064870595698e-01
7.19728456587301335e-02
4.91948773306176909e-02
3.23702617068847079e-02
2.05044280693275488e-02
1.25032878671017898e-02
7.33965964332941589e-03
4.30851502840792246e-03
7.33965964332941589e-03
1.20364759101462288e-02
1.90019382117213552e-02
2.88782966240519919e-02
4.22493824273923527e-02
5.95037420110425402e-02
8.06758057821840707e-02
1.05297356011322590e-01
1.32302101189586546e-01
1.60026216628136070e-01
1.86333376830613656e-01
2.08864818145503950e-01
2.25379831897143418e-01
2.34120762479452571e-01
2.34120762479452571e-01
2.25379831897143418e-01
2.08864818145503950e-01
1.86333376830613656e-01
1.60026216628136070e-01
1.32302101189586546e-01
1.05297356011322590e-01
8.06758057821840707e-02
5.95037420110425402e-02
4.22493824273923527e-02
2.88782966240519919e-02
1.90019382117213552e-02
1.20364759101462288e-02
7.33965964332941589e-03
4.30851502840792246e-03
2.34384854336939239e-03
3.99280272911143111e-03
6.54788862131966843e-03
1.03371265749526240e-02
1.57099030712409722e-02
2.29838245446000004e-02
3.23702617068847079e-02
4.38879448304018496e-02
5.72821616915618476e-02
7.19728456587300780e-02
8.70548697803590205e-02
1.01366064870595698e-01
1.13623254542145460e-01
1.22607484763064364e-01
1.27362584206365759e-01
1.27362584206365759e-01
1.22607484763064364e-01
1.13623254542145460e-01
1.01366064870595698e-01
8.70548697803590205e-02
7.19728456587300780e-02
5.72821616915618476e-02
4.38879448304018496e-02
3.23702617068847079e-02
2.29838245446000004e-02
1.57099030712409722e-02
1.03371265749526240e-02
6.54788862131966843e-03
3.99280272911143111e-03
2.34384854336939239e-03
1.18163057186517146e-03
2.01293628186503468e-03
3.30106030016634466e-03
5.21137119578758169e-03
7.92000908187150479e-03
1.15870924412389831e-02
1.63191819541145394e-02
2.21257203220924098e-02
2.88782966240519676e-02
3.62844753834786551e-02
4.38879448304018913e-02
5.11028076193774522e-02
5.72821616915618961e-02
6.18114821221609212e-02
6.42087235695057851e-02
6.42087235695057851e-02
6.18114821221609212e-02
5.72821616915618961e-02
5.11028076193774522e-02
4.38879448304018913e-02
3.62844753834786204e-02
2.88782966240519676e-02
2.21257203220924098e-02
1.63191819541145394e-02
1.15870924412389831e-02
7.92000908187151173e-03
5.21137119578758169e-03
3.30106030016634466e-03
2.01293628186503468e-03
1.18163057186517146e-03
5.52057271283850530e-04
9.40442924797199099e-04
1.54225388631973998e-03
2.43475027685896789e-03
3.70022467798860341e-03
5.41348437280785282e-03
7.62431446315109049e-03
1.03371265749526431e-02
1.34919271836670476e-02
1.69520905663016822e-02
2.05044280693275661e-02
2.38752087166851854e-02
2.67622001576752165e-02
2.88782966240520196e-02
2.99982867491727367e-02
2.99982867491727367e-02
2.88782966240520196e-02
2.67622001576752165e-02
2.38752087166851854e-02
2.05044280693275661e-02
1.69520905663016822e-02
1.34919271836670476e-02
1.03371265749526431e-02
7.62431446315109049e-03
5.41348437280785282e-03
3.70022467798860341e-03
2.43475027685896789e-03
1.54225388631973998e-03
9.40442924797199099e-04
5.52057271283850530e-04
2.39021403230539901e-04
4.07178746184256213e-04
6.67741749309121277e-04
1.05416133064852404e-03
1.60206728686734866e-03
2.34384854336939239e-03
3.30106030016633859e-03
4.47561263629563718e-03
5.84153046336065469e-03
7.33965964332940982e-03
8.87769697910638540e-03
1.03371265749526240e-02
1.15870924412389727e-02
1.25032878671017898e-02
1.29882042430570274e-02
1.29882042430570274e-02
1.25032878671017898e-02
1.15870924412389727e-02
1.03371265749526240e-02
8.87769697910638540e-03
7.33965964332940982e-03
5.84153046336065469e-03
4.47561263629563718e-03
3.30106030016633859e-03
2.34384854336939239e-03
1.60206728686734866e-03
1.05416133064852404e-03
6.67741749309121277e-04
4.07178746184256213e-04
2.39021403230539901e-04
9.59046556908150068e-05
1.63375902449012817e-04
2.67923883352431990e-04
4.22970403871766865e-04
6.42811520072690827e-04
9.40442924797199099e-04
1.32451340015235942e-03
1.79578934391658976e-03
2.34384854336939629e-03
2.94495606446735884e-03
3.56207628522448635e-03
4.14765603248929120e-03
4.64919080892033706e-03
5.01680394178326879e-03
5.21137119578758603e-03
5.21137119578758603e-03
5.01680394178326879e-03
4.64919080892033706e-03
4.14765603248929120e-03