<?xml version="1.0"?>
<VTKFile type="StructuredGrid">
<StructuredGrid WholeExtent="0 29 0 29 0 0 ">
<Piece Extent="0 29 0 29 0 0 ">
<Points>
<DataArray type="Float64" Name="coordinate" NumberOfComponents="3" format="ascii">
-2.00000000000000000e+00 -2.00000000000000000e+00 0 
-1.86206896551724133e+00 -2.00000000000000000e+00 0 
-1.72413793103448265e+00 -2.00000000000000000e+00 0 
-1.58620689655172420e+00 -2.00000000000000000e+00 0 
-1.44827586206896552e+00 -2.00000000000000000e+00 0 
-1.31034482758620685e+00 -2.00000000000000000e+00 0 
-1.17241379310344840e+00 -2.00000000000000000e+00 0 
-1.03448275862068950e+00 -2.00000000000000000e+00 0 
-8.96551724137931050e-01 -2.00000000000000000e+00 0 
-7.58620689655172376e-01 -2.00000000000000000e+00 0 
-6.20689655172413701e-01 -2.00000000000000000e+00 0 
-4.82758620689655249e-01 -2.00000000000000000e+00 0 
-3.44827586206896575e-01 -2.00000000000000000e+00 0 
-2.06896551724137900e-01 -2.00000000000000000e+00 0 
-6.89655172413792261e-02 -2.00000000000000000e+00 0 
6.89655172413794482e-02 -2.00000000000000000e+00 0 
2.06896551724137900e-01 -2.00000000000000000e+00 0 
3.44827586206896353e-01 -2.00000000000000000e+00 0 
4.82758620689655249e-01 -2.00000000000000000e+00 0 
6.20689655172413701e-01 -2.00000000000000000e+00 0 
7.58620689655172598e-01 -2.00000000000000000e+00 0 
8.96551724137931050e-01 -2.00000000000000000e+00 0 
1.03448275862068950e+00 -2.00000000000000000e+00 0 
1.17241379310344840e+00 -2.00000000000000000e+00 0 
1.31034482758620685e+00 -2.00000000000000000e+00 0 
1.44827586206896530e+00 -2.00000000000000000e+00 0 
1.58620689655172420e+00 -2.00000000000000000e+00 0 
1.72413793103448265e+00 -2.00000000000000000e+00 0 
1.86206896551724155e+00 -2.00000000000000000e+00 0 
2.00000000000000000e+00 -2.00000000000000000e+00 0 
-2.00000000000000000e+00 -1.86206896551724133e+00 0 
-1.86206896551724133e+00 -1.86206896551724133e+00 0 
-1.72413793103448265e+00 -1.86206896551724133e+00 0 
-1.58620689655172420e+00 -1.86206896551724133e+00 0 
-1.44827586206896552e+00 -1.86206896551724133e+00 0 
-1.31034482758620685e+00 -1.86206896551724133e+00 0 
-1.17241379310344840e+00 -1.86206896551724133e+00 0 
-1.03448275862068950e+00 -1.86206896551724133e+00 0 
-8.96551724137931050e-01 -1.86206896551724133e+00 0 
-7.58620689655172376e-01 -1.86206896551724133e+00 0 
-6.20689655172413701e-01 -1.86206896551724133e+00 0 
-4.82758620689655249e-01 -1.86206896551724133e+00 0 
-3.44827586206896575e-01 -1.86206896551724133e+00 0 
-2.06896551724137900e-01 -1.86206896551724133e+00 0 
-6.89655172413792261e-02 -1.86206896551724133e+00 0 
6.89655172413794482e-02 -1.86206896551724133e+00 0 
2.06896551724137900e-01 -1.86206896551724133e+00 0 
3.44827586206896353e-01 -1.86206896551724133e+00 0 
4.82758620689655249e-01 -1.86206896551724133e+00 0 
6.20689655172413701e-01 -1.86206896551724133e+00 0 
7.58620689655172598e-01 -1.86206896551724133e+00 0 
8.96551724137931050e-01 -1.86206896551724133e+00 0 
1.03448275862068950e+00 -1.86206896551724133e+00 0 
1.17241379310344840e+00 -1.86206896551724133e+00 0 
1.31034482758620685e+00 -1.86206896551724133e+00 0 
1.44827586206896530e+00 -1.86206896551724133e+00 0 
1.58620689655172420e+00 -1.86206896551724133e+00 0 
1.72413793103448265e+00 -1.86206896551724133e+00 0 
1.86206896551724155e+00 -1.86206896551724133e+00 0 
2.00000000000000000e+00 -1.86206896551724133e+00 0 
-2.00000000000000000e+00 -1.72413793103448265e+00 0 
-1.86206896551724133e+00 -1.72413793103448265e+00 0 
-1.72413793103448265e+00 -1.72413793103448265e+00 0 
-1.58620689655172420e+00 -1.72413793103448265e+00 0 
-1.44827586206896552e+00 -1.72413793103448265e+00 0 
-1.31034482758620685e+00 -1.72413793103448265e+00 0 
-1.17241379310344840e+00 -1.72413793103448265e+00 0 
-1.03448275862068950e+00 -1.72413793103448265e+00 0 
-8.96551724137931050e-01 -1.72413793103448265e+00 0 
-7.58620689655172376e-01 -1.72413793103448265e+00 0 
-6.20689655172413701e-01 -1.72413793103448265e+00 0 
-4.82758620689655249e-01 -1.72413793103448265e+00 0 
-3.44827586206896575e-01 -1.72413793103448265e+00 0 
-2.06896551724137900e-01 -1.72413793103448265e+00 0 
-6.89655172413792261e-02 -1.72413793103448265e+00 0 
6.89655172413794482e-02 -1.72413793103448265e+00 0 
2.06896551724137900e-01 -1.72413793103448265e+00 0 
3.44827586206896353e-01 -1.72413793103448265e+00 0 
4.82758620689655249e-01 -1.72413793103448265e+00 0 
6.20689655172413701e-01 -1.72413793103448265e+00 0 
7.58620689655172598e-01 -1.72413793103448265e+00 0 
8.96551724137931050e-01 -1.72413793103448265e+00 0 
1.03448275862068950e+00 -1.72413793103448265e+00 0 
1.17241379310344840e+00 -1.72413793103448265e+00 0 
1.31034482758620685e+00 -1.72413793103448265e+00 0 
1.44827586206896530e+00 -1.72413793103448265e+00 0 
1.58620689655172420e+00 -1.72413793103448265e+00 0 
1.72413793103448265e+00 -1.72413793103448265e+00 0 
1.86206896551724155e+00 -1.72413793103448265e+00 0 
2.00000000000000000e+00 -1.72413793103448265e+00 0 
-2.00000000000000000e+00 -1.58620689655172420e+00 0 
-1.86206896551724133e+00 -1.58620689655172420e+00 0 
-1.72413793103448265e+00 -1.58620689655172420e+00 0 
-1.58620689655172420e+00 -1.58620689655172420e+00 0 
-1.44827586206896552e+00 -1.58620689655172420e+00 0 
-1.31034482758620685e+00 -1.58620689655172420e+00 0 
-1.17241379310344840e+00 -1.58620689655172420e+00 0 
-1.03448275862068950e+00 -1.58620689655172420e+00 0 
-8.96551724137931050e-01 -1.58620689655172420e+00 0 
-7.58620689655172376e-01 -1.58620689655172420e+00 0 
-6.20689655172413701e-01 -1.58620689655172420e+00 0 
-4.82758620689655249e-01 -1.58620689655172420e+00 0 
-3.44827586206896575e-01 -1.58620689655172420e+00 0 
-2.06896551724137900e-01 -1.58620689655172420e+00 0 
-6.89655172413792261e-02 -1.58620689655172420e+00 0 
6.89655172413794482e-02 -1.58620689655172420e+00 0 
2.06896551724137900e-01 -1.58620689655172420e+00 0 
3.44827586206896353e-01 -1.58620689655172420e+00 0 
4.82758620689655249e-01 -1.58620689655172420e+00 0 
6.20689655172413701e-01 -1.58620689655172420e+00 0 
7.58620689655172598e-01 -1.58620689655172420e+00 0 
8.96551724137931050e-01 -1.58620689655172420e+00 0 
1.03448275862068950e+00 -1.58620689655172420e+00 0 
1.17241379310344840e+00 -1.58620689655172420e+00 0 
1.31034482758620685e+00 -1.58620689655172420e+00 0 
1.44827586206896530e+00 -1.58620689655172420e+00 0 
1.58620689655172420e+00 -1.58620689655172420e+00 0 
1.72413793103448265e+00 -1.58620689655172420e+00 0 
1.86206896551724155e+00 -1.58620689655172420e+00 0 
2.00000000000000000e+00 -1.58620689655172420e+00 0 
-2.00000000000000000e+00 -1.44827586206896552e+00 0 
-1.86206896551724133e+00 -1.44827586206896552e+00 0 
-1.72413793103448265e+00 -1.44827586206896552e+00 0 
-1.58620689655172420e+00 -1.44827586206896552e+00 0 
-1.44827586206896552e+00 -1.44827586206896552e+00 0 
-1.31034482758620685e+00 -1.44827586206896552e+00 0 
-1.17241379310344840e+00 -1.44827586206896552e+00 0 
-1.03448275862068950e+00 -1.44827586206896552e+00 0 
-8.96551724137931050e-01 -1.44827586206896552e+00 0 
-7.58620689655172376e-01 -1.44827586206896552e+00 0 
-6.20689655172413701e-01 -1.44827586206896552e+00 0 
-4.82758620689655249e-01 -1.44827586206896552e+00 0 
-3.44827586206896575e-01 -1.44827586206896552e+00 0 
-2.06896551724137900e-01 -1.44827586206896552e+00 0 
-6.89655172413792261e-02 -1.44827586206896552e+00 0 
6.89655172413794482e-02 -1.44827586206896552e+00 0 
2.06896551724137900e-01 -1.44827586206896552e+00 0 
3.44827586206896353e-01 -1.44827586206896552e+00 0 
4.82758620689655249e-01 -1.44827586206896552e+00 0 
6.20689655172413701e-01 -1.44827586206896552e+00 0 
7.58620689655172598e-01 -1.44827586206896552e+00 0 
8.96551724137931050e-01 -1.44827586206896552e+00 0 
1.03448275862068950e+00 -1.44827586206896552e+00 0 
1.17241379310344840e+00 -1.44827586206896552e+00 0 
1.31034482758620685e+00 -1.44827586206896552e+00 0 
1.44827586206896530e+00 -1.44827586206896552e+00 0 
1.58620689655172420e+00 -1.44827586206896552e+00 0 
1.72413793103448265e+00 -1.44827586206896552e+00 0 
1.86206896551724155e+00 -1.44827586206896552e+00 0 
2.00000000000000000e+00 -1.44827586206896552e+00 0 
-2.00000000000000000e+00 -1.31034482758620685e+00 0 
-1.86206896551724133e+00 -1.31034482758620685e+00 0 
-1.72413793103448265e+00 -1.31034482758620685e+00 0 
-1.58620689655172420e+00 -1.31034482758620685e+00 0 
-1.44827586206896552e+00 -1.31034482758620685e+00 0 
-1.31034482758620685e+00 -1.31034482758620685e+00 0 
-1.17241379310344840e+00 -1.31034482758620685e+00 0 
-1.03448275862068950e+00 -1.31034482758620685e+00 0 
-8.96551724137931050e-01 -1.31034482758620685e+00 0 
-7.58620689655172376e-01 -1.31034482758620685e+00 0 
-6.20689655172413701e-01 -1.31034482758620685e+00 0 
-4.82758620689655249e-01 -1.31034482758620685e+00 0 
-3.44827586206896575e-01 -1.31034482758620685e+00 0 
-2.06896551724137900e-01 -1.31034482758620685e+00 0 
-6.89655172413792261e-02 -1.31034482758620685e+00 0 
6.89655172413794482e-02 -1.31034482758620685e+00 0 
2.06896551724137900e-01 -1.31034482758620685e+00 0 
3.44827586206896353e-01 -1.31034482758620685e+00 0 
4.82758620689655249e-01 -1.31034482758620685e+00 0 
6.20689655172413701e-01 -1.31034482758620685e+00 0 
7.58620689655172598e-01 -1.31034482758620685e+00 0 
8.96551724137931050e-01 -1.31034482758620685e+00 0 
1.03448275862068950e+00 -1.31034482758620685e+00 0 
1.17241379310344840e+00 -1.31034482758620685e+00 0 
1.31034482758620685e+00 -1.31034482758620685e+00 0 
1.44827586206896530e+00 -1.31034482758620685e+00 0 
1.58620689655172420e+00 -1.31034482758620685e+00 0 
1.72413793103448265e+00 -1.31034482758620685e+00 0 
1.86206896551724155e+00 -1.31034482758620685e+00 0 
2.00000000000000000e+00 -1.31034482758620685e+00 0 
-2.00000000000000000e+00 -1.17241379310344840e+00 0 
-1.86206896551724133e+00 -1.17241379310344840e+00 0 
-1.72413793103448265e+00 -1.17241379310344840e+00 0 
-1.58620689655172420e+00 -1.17241379310344840e+00 0 
-1.44827586206896552e+00 -1.17241379310344840e+00 0 
-1.31034482758620685e+00 -1.17241379310344840e+00 0 
[...]
<PointData>
<DataArray type="Float64" Name="gaussian_hill" NumberOfComponents="1" format="ascii">
0.00000000000000000e+00
0.00000000000000000e+00
0.00000000000000000e+00
0.00000000000000000e+00
0.00000000000000000e+00
0.00000000000000000e+00
0.00000000000000000e+00
0.00000000000000000e+00
0.00000000000000000e+00
0.00000000000000000e+00
0.00000000000000000e+00
0.00000000000000000e+00
0.00000000000000000e+00
0.00000000000000000e+00
0.00000000000000000e+00
0.00000000000000000e+00
0.00000000000000000e+00
0.00000000000000000e+00
0.00000000000000000e+00
0.00000000000000000e+00
0.00000000000000000e+00
0.00000000000000000e+00
0.00000000000000000e+00
0.00000000000000000e+00
0.00000000000000000e+00
0.00000000000000000e+00
0.00000000000000000e+00
0.00000000000000000e+00
0.00000000000000000e+00
0.00000000000000000e+00
0.00000000000000000e+00
1.00466481852411627e-03
2.04316897124828421e-03
3.15300104482627973e-03
4.36336757115482997e-03
5.69050827736644876e-03
7.13382445798544599e-03
8.67321020890661140e-03
1.02681068445434759e-02
1.18588181910823758e-02
1.33704434643015149e-02
1.47194023273997058e-02
1.58220134276874820e-02
1.66040700295918102e-02
1.70099853564988635e-02
1.70099853564989259e-02
1.66040700295917582e-02
1.58220134276875167e-02
1.47194023273996642e-02
1.33704434643015773e-02
1.18588181910823393e-02
1.02681068445435210e-02
8.67321020890656283e-03
7.13382445798547635e-03
5.69050827736643054e-03
4.36336757115484905e-03
3.15300104482625675e-03
2.04316897124831457e-03
1.00466481852412321e-03
0.00000000000000000e+00
0.00000000000000000e+00
2.15506995332920455e-03
4.38476884872327378e-03
6.77540339033125619e-03
9.39461659484918700e-03
1.22809298067809210e-02
1.54350886458016288e-02
1.88139475277889767e-02
2.23280947982640275e-02
2.58445271083568642e-02
2.91952879525921270e-02
3.21921009914173384e-02
3.46458218053594391e-02
3.63883021459470227e-02
3.72933680518188482e-02
3.72933680518188065e-02
3.63883021459470435e-02
3.46458218053592587e-02
3.21921009914174563e-02
2.91952879525920750e-02
2.58445271083569648e-02
2.23280947982639859e-02
1.88139475277890426e-02
1.54350886458015750e-02
1.22809298067809314e-02
9.39461659484911588e-03
6.77540339033127961e-03
4.38476884872323041e-03
2.15506995332924618e-03
0.00000000000000000e+00
0.00000000000000000e+00
3.60976534718743030e-03
7.34866161085050412e-03
1.13777755602420105e-02
1.58237939249995102e-02
2.07610299672728350e-02
2.61961855365535658e-02
3.20570959937619068e-02
3.81877946217408573e-02
4.43525440753435793e-02
5.02507911461470974e-02
5.55433391971171045e-02
5.98877207865043393e-02
6.29783669047078998e-02
6.45854070180112011e-02
6.45854070180113399e-02
6.29783669047078165e-02
5.98877207865044156e-02
5.55433391971170420e-02
5.02507911461472570e-02
4.43525440753434613e-02
3.81877946217409336e-02
3.20570959937618097e-02
2.61961855365536594e-02
2.07610299672727656e-02
1.58237939249995622e-02
1.13777755602419411e-02
7.34866161085053014e-03
3.60976534718742423e-03
0.00000000000000000e+00
0.00000000000000000e+00
5.54462097339300519e-03
1.12933797049028506e-02
1.75273078531138909e-02
2.44674328429153841e-02
3.22470738918695654e-02
4.08873183096777962e-02
5.02778252987087990e-02
6.01673107603088939e-02
7.01687536856789862e-02
7.97832122260337673e-02
8.84432123775334283e-02
9.55725354234270574e-02
1.00654906450790393e-01
1.03300838587392210e-01
1.03300838587392030e-01
1.00654906450790532e-01
9.55725354234268354e-02
8.84432123775335394e-02
7.97832122260336424e-02
7.01687536856792082e-02
6.01673107603088037e-02
5.02778252987088684e-02
4.08873183096776505e-02
3.22470738918696834e-02
2.44674328429152800e-02
1.75273078531139083e-02
1.12933797049028038e-02
5.54462097339304509e-03
0.00000000000000000e+00
0.00000000000000000e+00
8.15128234656422625e-03
1.66080771705702235e-02
2.58419978967856546e-02
3.62225108816885341e-02
4.79775968769231217e-02
6.11564651054478103e-02
7.55982821903035812e-02
9.09148472855974554e-02
1.06496402020031536e-01
1.21547862759070077e-01
1.35157806166214506e-01
1.46395447908273718e-01
1.54423363570486971e-01
1.58607990990300485e-01
1.58607990990300735e-01
1.54423363570486666e-01
1.46395447908274384e-01
1.35157806166214367e-01
1.21547862759070271e-01
1.06496402020031578e-01
9.09148472855976636e-02
7.55982821903034702e-02
6.11564651054480046e-02
4.79775968769230593e-02
3.62225108816886660e-02
2.58419978967856269e-02
1.66080771705702963e-02
8.15128234656421063e-03
0.00000000000000000e+00
0.00000000000000000e+00
1.16202497563866799e-02
2.36773047379112665e-02
3.69350662788678480e-02
5.19875584641978222e-02
6.92076202799470352e-02
8.86929428358641525e-02
1.10217130071357222e-01
1.33199829493799965e-01
1.56711942520824515e-01
1.79528806924341533e-01
2.00236140106895139e-01
2.17381862685421812e-01
2.29654491847840786e-01
2.36059203378214760e-01
2.36059203378214788e-01
2.29654491847840758e-01
2.17381862685421673e-01
2.00236140106895333e-01
1.79528806924341811e-01
1.56711942520824821e-01
1.33199829493799909e-01
1.10217130071357444e-01
8.86929428358641525e-02
6.92076202799472712e-02
5.19875584641977528e-02
3.69350662788679659e-02
2.36773047379112665e-02
1.16202497563867232e-02
0.00000000000000000e+00
0.00000000000000000e+00
1.61035314706362703e-02
3.28046920700246006e-02
5.12936541386064052e-02
7.24868495707147731e-02
9.69664463407283461e-02
1.24905929228720333e-01
1.55996573540196054e-01
1.89398711829117994e-01
2.23744319633158217e-01
2.57212421362940868e-01
2.87686087074681573e-01
3.12981415234117155e-01
3.31119199033771960e-01
3.40594626782228516e-01
3.40594626782228682e-01
3.31119199033771794e-01
3.12981415234117266e-01
2.87686087074680907e-01
2.57212421362940646e-01
2.23744319633158523e-01
1.89398711829118105e-01
1.55996573540196276e-01
1.24905929228720777e-01
9.69664463407284988e-02
7.24868495707148702e-02
5.12936541386064052e-02
3.28046920700247324e-02
1.61035314706363120e-02
0.00000000000000000e+00
0.00000000000000000e+00
2.16565080660844969e-02
4.40954248836964852e-02
6.90914979907062271e-02
9.79962535741249197e-02
1.31675291427566593e-01
1.70410500874463883e-01
2.13794276707309494e-01
2.60654382593248857e-01
3.09051057696055009e-01
3.56380118380307087e-01
3.99596694590075685e-01
4.35546663788468236e-01
4.61363145436016586e-01
4.74862098967330282e-01
4.74862098967330060e-01
4.61363145436015976e-01
4.35546663788467237e-01
3.99596694590076018e-01
3.56380118380306588e-01
3.09051057696054843e-01
2.60654382593249578e-01
2.13794276707310160e-01
1.70410500874464216e-01
1.31675291427567176e-01
9.79962535741251139e-02
6.90914979907066434e-02
4.40954248836966378e-02
2.16565080660845871e-02
0.00000000000000000e+00
0.00000000000000000e+00
2.81684733319283453e-02
5.73171815391230535e-02
8.99668636534506211e-02
1.28015822630889842e-01
1.72686337481013752e-01
2.24402189559489235e-01
2.82643324248732397e-01
3.45836559106015573e-01
4.11343836013207453e-01
4.75597818966624231e-01
5.34407350591441510e-01
5.83415985438588081e-01
6.18654350509114881e-01
6.37093535466730865e-01
6.37093535466730532e-01
6.18654350509114770e-01
5.83415985438587970e-01
5.34407350591441954e-01
4.75597818966625008e-01
4.11343836013207342e-01
3.45836559106016184e-01
2.82643324248732897e-01
2.24402189559489956e-01
1.72686337481014279e-01
1.28015822630890230e-01
8.99668636534510513e-02
5.73171815391234005e-02
2.81684733319284217e-02
0.00000000000000000e+00
0.00000000000000000e+00
3.53039289790499367e-02
7.17841083696505733e-02
1.12836827560636330e-01
1.60993300082314689e-01
2.17888780277832400e-01
2.84116105347204329e-01
3.59035506646907310e-01
4.40624868407785808e-01
5.25455913039475808e-01
6.08865302764346028e-01
6.85352738721467181e-01
7.49185135071308017e-01
7.95128517075683772e-01
8.19183712583483992e-01
8.19183712583484325e-01
7.95128517075685326e-01
7.49185135071310904e-01
6.85352738721469734e-01
6.08865302764347138e-01
5.25455913039477696e-01
4.40624868407786308e-01
3.59035506646908142e-01
2.84116105347205217e-01
2.17888780277833150e-01
1.60993300082315105e-01
1.12836827560636760e-01
7.17841083696507953e-02
3.53039289790500962e-02
0.00000000000000000e+00
0.00000000000000000e+00
4.24856088600422260e-02
8.63255210341086626e-02
1.35846348707428705e-01
1.94243906942453165e-01
2.63586964303168525e-01
3.44649544023305388e-01
4.36674416109744168e-01
5.37180122670811833e-01
6.41923006565064735e-01
7.45103883109191956e-01
8.39861849748106626e-01
9.19030212045152894e-01
9.76056217836292705e-01
1.00592792083094262e+00
1.00592792083094396e+00
9.76056217836299145e-01
9.19030212045157335e-01
8.39861849748110623e-01
7.45103883109195397e-01
6.41923006565067844e-01
5.37180122670813942e-01
4.36674416109744945e-01
3.44649544023306720e-01
2.63586964303169247e-01
1.94243906942453942e-01
1.35846348707428954e-01
8.63255210341086210e-02
4.24856088600421497e-02
0.00000000000000000e+00
0.00000000000000000e+00
4.89469178691637405e-02
9.93937323424002178e-02
1.56539003042686448e-01
2.24195586077949455e-01
3.04834521551681115e-01
3.99400452746247914e-01
5.07032657157808764e-01
6.24831398659376980e-01
7.47805782180458900e-01
8.69112271168263062e-01
9.80636282592424413e-01
1.07388820176237387e+00
1.14109704758817454e+00
1.17631466399091034e+00
1.17631466399091078e+00
1.14109704758818009e+00
1.07388820176237432e+00
9.80636282592429076e-01
8.69112271168264616e-01
7.47805782180456791e-01
6.24831398659376758e-01
5.07032657157808875e-01
3.99400452746248746e-01
3.04834521551682003e-01
2.24195586077950426e-01
1.56539003042685976e-01
9.93937323423998847e-02
4.89469178691638446e-02
0.00000000000000000e+00
0.00000000000000000e+00
5.38611560603810061e-02
1.09324567387535196e-01
1.72271150053443428e-01
2.46993330675030653e-01
3.36274632462035816e-01
4.41193543273737776e-01
5.60811839123758205e-01
6.91909034044783766e-01
8.28918663780172649e-01
9.64190922756715030e-01
1.08864191295226620e+00
1.19275811117195230e+00
1.26782497271359995e+00
1.30716886167683510e+00
1.30716886167683843e+00
1.26782497271360461e+00
1.19275811117195651e+00
1.08864191295226842e+00
9.64190922756715363e-01
8.28918663780172094e-01
6.91909034044783322e-01
5.60811839123758094e-01
4.41193543273738387e-01
3.36274632462035983e-01
2.46993330675030626e-01
1.72271150053442484e-01
1.09324567387534557e-01
5.38611560603806730e-02
0.00000000000000000e+00
0.00000000000000000e+00
5.65222936804389980e-02
1.14699458452190886e-01
1.80788188453943982e-01
2.59343915824248705e-01
3.53321471587362546e-01
4.63873133647156322e-01
5.90019107625075367e-01
7.28364386417380216e-01
8.73028509268653385e-01
1.01592122356734782e+00
1.14742865261141014e+00
1.25747710435969351e+00
1.33683560110430699e+00
1.37843332323675649e+00
1.37843332323676160e+00
1.33683560110431254e+00
1.25747710435969595e+00
1.14742865261141302e+00
1.01592122356734849e+00
8.73028509268649611e-01
7.28364386417379217e-01
5.90019107625074923e-01
4.63873133647155822e-01
3.53321471587362490e-01
2.59343915824247873e-01
1.80788188453943399e-01
1.14699458452190511e-01
5.65222936804385678e-02
0.00000000000000000e+00
0.00000000000000000e+00
5.65222936804389772e-02
1.14699458452190345e-01
1.80788188453944010e-01
2.59343915824248039e-01
3.53321471587361657e-01
4.63873133647155711e-01
5.90019107625076034e-01
7.28364386417379772e-01
8.73028509268651942e-01
1.01592122356734627e+00
1.14742865261140503e+00
1.25747710435968996e+00
1.33683560110430100e+00
1.37843332323675227e+00
1.37843332323675849e+00
1.33683560110430677e+00
1.25747710435969440e+00
1.14742865261140636e+00
1.01592122356734604e+00
8.73028509268648834e-01
7.28364386417377996e-01
5.90019107625075145e-01
4.63873133647154989e-01
3.53321471587361546e-01
2.59343915824247040e-01
1.80788188453943177e-01
1.14699458452190317e-01
5.65222936804384776e-02
0.00000000000000000e+00
0.00000000000000000e+00
5.38611560603810130e-02
1.09324567387534627e-01
1.72271150053442734e-01
2.46993330675030570e-01
3.36274632462035039e-01
4.41193543273737776e-01
5.60811839123757094e-01
6.91909034044781768e-01
8.28918663780168763e-01
9.64190922756709479e-01
1.08864191295226376e+00
1.19275811117195052e+00
1.26782497271359507e+00
1.30716886167682445e+00
1.30716886167682644e+00
1.26782497271360084e+00
1.19275811117195318e+00
1.08864191295226531e+00
9.64190922756712920e-01
8.28918663780170872e-01
6.91909034044781546e-01
5.60811839123756650e-01
4.41193543273737554e-01
3.36274632462034928e-01
2.46993330675030071e-01
1.72271150053442984e-01
1.09324567387534766e-01
5.38611560603803746e-02
0.00000000000000000e+00
0.00000000000000000e+00
4.89469178691636225e-02
9.93937323423999680e-02
1.56539003042686059e-01
2.24195586077949760e-01
3.04834521551680782e-01
3.99400452746248247e-01
5.07032657157807654e-01
6.24831398659375314e-01
7.47805782180454459e-01
8.69112271168260175e-01
9.80636282592423414e-01
1.07388820176237076e+00
1.14109704758817387e+00
1.17631466399090501e+00
1.17631466399090523e+00
1.14109704758817698e+00
1.07388820176237298e+00
9.80636282592427855e-01
8.69112271168262951e-01
7.47805782180457235e-01
6.24831398659374537e-01
5.07032657157807765e-01
3.99400452746247858e-01
3.04834521551680893e-01
2.24195586077949510e-01
1.56539003042685476e-01
9.93937323423998709e-02
4.89469178691637960e-02
0.00000000000000000e+00
0.00000000000000000e+00
4.24856088600419415e-02
8.63255210341085238e-02
1.35846348707428705e-01
1.94243906942453554e-01
2.63586964303168803e-01
3.44649544023304777e-01
4.36674416109744279e-01
5.37180122670810611e-01
6.41923006565064513e-01
7.45103883109190623e-01
8.39861849748105405e-01
9.19030212045150341e-01
9.76056217836289708e-01
1.00592792083093707e+00
1.00592792083093796e+00
9.76056217836293927e-01
9.19030212045155670e-01
8.39861849748110068e-01
7.45103883109194176e-01
6.41923006565066734e-01
5.37180122670812277e-01
4.36674416109744334e-01
3.44649544023305610e-01
2.63586964303168692e-01
1.94243906942453332e-01
1.35846348707428566e-01
8.63255210341085377e-02
4.24856088600421636e-02
0.00000000000000000e+00
0.00000000000000000e+00
3.53039289790501379e-02
7.17841083696509757e-02
1.12836827560636621e-01
1.60993300082315133e-01
2.17888780277832567e-01
2.84116105347204551e-01
3.59035506646907143e-01
4.40624868407786086e-01
5.25455913039475475e-01
6.08865302764345362e-01
6.85352738721466181e-01
7.49185135071305686e-01
7.95128517075680219e-01
8.19183712583479995e-01
8.19183712583479995e-01
7.95128517075682439e-01
7.49185135071309682e-01
6.85352738721470400e-01
6.08865302764347693e-01
5.25455913039477474e-01
4.40624868407785530e-01
3.59035506646907532e-01
2.84116105347204495e-01
2.17888780277832872e-01
1.60993300082314744e-01
1.12836827560636455e-01
7.17841083696506149e-02
3.53039289790499020e-02
0.00000000000000000e+00
0.00000000000000000e+00
2.81684733319286819e-02
5.73171815391235323e-02
8.99668636534510097e-02
1.28015822630889842e-01
1.72686337481014140e-01
2.24402189559489540e-01
2.82643324248733230e-01
3.45836559106015184e-01
4.11343836013207009e-01
4.75597818966623731e-01
5.34407350591440289e-01
5.83415985438585971e-01
6.18654350509113438e-01
6.37093535466728089e-01
6.37093535466728977e-01
6.18654350509116102e-01
5.83415985438588969e-01
5.34407350591442176e-01
4.75597818966626174e-01
4.11343836013207675e-01
3.45836559106016295e-01
2.82643324248733008e-01
2.24402189559489568e-01
1.72686337481013502e-01
1.28015822630889786e-01
8.99668636534506627e-02
5.73171815391233172e-02
2.81684733319283037e-02
0.00000000000000000e+00
0.00000000000000000e+00
2.16565080660846218e-02
4.40954248836967211e-02
6.90914979907064353e-02
9.79962535741251695e-02
1.31675291427566704e-01
1.70410500874464299e-01
2.13794276707309605e-01
2.60654382593249356e-01
3.09051057696054343e-01
3.56380118380306976e-01
3.99596694590075352e-01
4.35546663788467070e-01
4.61363145436015809e-01
4.74862098967330559e-01
4.74862098967330670e-01
4.61363145436016531e-01
4.35546663788467625e-01
3.99596694590076906e-01
3.56380118380306921e-01
3.09051057696055509e-01
2.60654382593249356e-01
2.13794276707310188e-01
1.70410500874463883e-01
1.31675291427566815e-01
9.79962535741248641e-02
6.90914979907063520e-02
4.40954248836965268e-02
2.16565080660845385e-02
0.00000000000000000e+00
0.00000000000000000e+00
1.61035314706364056e-02
3.28046920700246769e-02
5.12936541386065786e-02
7.24868495707146898e-02
9.69664463407286376e-02
1.24905929228720486e-01
1.55996573540196387e-01
1.89398711829117716e-01
2.23744319633157995e-01
2.57212421362940258e-01
2.87686087074681407e-01
3.12981415234116711e-01
3.31119199033772627e-01
3.40594626782228183e-01
3.40594626782229237e-01
3.31119199033772293e-01
3.12981415234117821e-01
2.87686087074681018e-01
2.57212421362940868e-01
2.23744319633158523e-01
1.89398711829118216e-01
1.55996573540196332e-01
1.24905929228720708e-01
9.69664463407284016e-02
7.24868495707146065e-02
5.12936541386062733e-02
3.28046920700246700e-02
1.61035314706363328e-02
0.00000000000000000e+00
0.00000000000000000e+00
1.16202497563867094e-02
2.36773047379113741e-02
3.69350662788678341e-02
5.19875584641978500e-02
6.92076202799469103e-02
8.86929428358642219e-02
1.10217130071357194e-01
1.33199829493799909e-01
1.56711942520824293e-01
1.79528806924341422e-01
2.00236140106894611e-01
2.17381862685421950e-01
2.29654491847840564e-01
2.36059203378215010e-01
2.36059203378214705e-01
2.29654491847841008e-01
2.17381862685421784e-01
2.00236140106895388e-01
1.79528806924341700e-01
1.56711942520824654e-01
1.33199829493799854e-01
1.10217130071357333e-01
8.86929428358640137e-02
6.92076202799472434e-02
5.19875584641976765e-02
3.69350662788679382e-02
2.36773047379112977e-02
1.16202497563867389e-02
0.00000000000000000e+00
0.00000000000000000e+00
8.15128234656425921e-03
1.66080771705702165e-02
2.58419978967857761e-02
3.62225108816885202e-02
4.79775968769231773e-02
6.11564651054477618e-02
7.55982821903036784e-02
9.09148472855972334e-02
1.06496402020031619e-01
1.21547862759069827e-01
1.35157806166214450e-01
1.46395447908273635e-01
1.54423363570487138e-01
1.58607990990300651e-01
1.58607990990300901e-01
1.54423363570486749e-01
1.46395447908274245e-01
1.35157806166214561e-01
1.21547862759070244e-01
1.06496402020031466e-01
9.09148472855977469e-02
7.55982821903035257e-02
6.11564651054479352e-02
4.79775968769230940e-02
3.62225108816885827e-02
2.58419978967856720e-02
1.66080771705702616e-02
8.15128234656422104e-03
0.00000000000000000e+00
0.00000000000000000e+00
5.54462097339297917e-03
1.12933797049028714e-02
1.75273078531138389e-02
2.44674328429154292e-02
3.22470738918694752e-02
4.08873183096777754e-02
5.02778252987085353e-02
6.01673107603088037e-02
7.01687536856788058e-02
7.97832122260336285e-02
8.84432123775332063e-02
9.55725354234270574e-02
1.00654906450790504e-01
1.03300838587392432e-01
1.03300838587392307e-01
1.00654906450790643e-01
9.55725354234269187e-02
8.84432123775335116e-02
7.97832122260335036e-02
7.01687536856791666e-02
6.01673107603087065e-02
5.02778252987089100e-02
4.08873183096777615e-02
3.22470738918696348e-02
2.44674328429153355e-02
1.75273078531139291e-02
1.12933797049028350e-02
5.54462097339304249e-03
0.00000000000000000e+00
0.00000000000000000e+00
3.60976534718742770e-03
7.34866161085045468e-03
1.13777755602420365e-02
1.58237939249994304e-02
2.07610299672728836e-02
2.61961855365535276e-02
3.20570959937618791e-02
3.81877946217406422e-02
4.43525440753435307e-02
5.02507911461469448e-02
5.55433391971171114e-02
5.98877207865043115e-02
6.29783669047079830e-02
6.45854070180113121e-02
6.45854070180114787e-02
6.29783669047079137e-02
5.98877207865046376e-02
5.55433391971168755e-02
5.02507911461472501e-02
4.43525440753434544e-02
3.81877946217408781e-02
3.20570959937618236e-02
2.61961855365536976e-02
2.07610299672727830e-02
1.58237939249995622e-02
1.13777755602419723e-02
7.34866161085051452e-03
3.60976534718743334e-03
0.00000000000000000e+00
0.00000000000000000e+00
2.15506995332919501e-03
4.38476884872325817e-03
6.77540339033123364e-03
9.39461659484920088e-03
1.22809298067808534e-02
1.54350886458016392e-02
1.88139475277889004e-02
2.23280947982640206e-02
2.58445271083566977e-02
2.91952879525921374e-02
3.21921009914173037e-02
3.46458218053594391e-02
3.63883021459469602e-02
3.72933680518190494e-02
3.72933680518188759e-02
3.63883021459472100e-02
3.46458218053593489e-02
3.21921009914174078e-02