<?xml version="1.0"?>
<VTKFile type="StructuredGrid">
<StructuredGrid WholeExtent="0 29 0 29 0 0 ">
<Piece Extent="0 29 0 29 0 0 ">
<Points>
<DataArray type="Float64" Name="coordinate" NumberOfComponents="3" format="ascii">
-2.00000000000000000e+00 -2.00000000000000000e+00 0 
-1.86206896551724133e+00 -2.00000000000000000e+00 0 
-1.72413793103448265e+00 -2.00000000000000000e+00 0 
-1.58620689655172420e+00 -2.00000000000000000e+00 0 
-1.44827586206896552e+00 -2.00000000000000000e+00 0 
-1.31034482758620685e+00 -2.00000000000000000e+00 0 
-1.17241379310344840e+00 -2.00000000000000000e+00 0 
-1.03448275862068950e+00 -2.00000000000000000e+00 0 
-8.96551724137931050e-01 -2.00000000000000000e+00 0 
-7.58620689655172376e-01 -2.00000000000000000e+00 0 
-6.20689655172413701e-01 -2.00000000000000000e+00 0 
-4.82758620689655249e-01 -2.00000000000000000e+00 0 
-3.44827586206896575e-01 -2.00000000000000000e+00 0 
-2.06896551724137900e-01 -2.00000000000000000e+00 0 
-6.89655172413792261e-02 -2.00000000000000000e+00 0 
6.89655172413794482e-02 -2.00000000000000000e+00 0 
2.06896551724137900e-01 -2.00000000000000000e+00 0 
3.44827586206896353e-01 -2.00000000000000000e+00 0 
4.82758620689655249e-01 -2.00000000000000000e+00 0 
6.20689655172413701e-01 -2.00000000000000000e+00 0 
7.58620689655172598e-01 -2.00000000000000000e+00 0 
8.96551724137931050e-01 -2.00000000000000000e+00 0 
1.03448275862068950e+00 -2.00000000000000000e+00 0 
1.17241379310344840e+00 -2.00000000000000000e+00 0 
1.31034482758620685e+00 -2.00000000000000000e+00 0 
1.44827586206896530e+00 -2.00000000000000000e+00 0 
1.58620689655172420e+00 -2.00000000000000000e+00 0 
1.72413793103448265e+00 -2.00000000000000000e+00 0 
1.86206896551724155e+00 -2.00000000000000000e+00 0 
2.00000000000000000e+00 -2.00000000000000000e+00 0 
-2.00000000000000000e+00 -1.86206896551724133e+00 0 
-1.86206896551724133e+00 -1.86206896551724133e+00 0 
-1.72413793103448265e+00 -1.86206896551724133e+00 0 
-1.58620689655172420e+00 -1.86206896551724133e+00 0 
-1.44827586206896552e+00 -1.86206896551724133e+00 0 
-1.31034482758620685e+00 -1.86206896551724133e+00 0 
-1.17241379310344840e+00 -1.86206896551724133e+00 0 
-1.03448275862068950e+00 -1.86206896551724133e+00 0 
-8.96551724137931050e-01 -1.86206896551724133e+00 0 
-7.58620689655172376e-01 -1.86206896551724133e+00 0 
-6.20689655172413701e-01 -1.86206896551724133e+00 0 
-4.82758620689655249e-01 -1.86206896551724133e+00 0 
-3.44827586206896575e-01 -1.86206896551724133e+00 0 
-2.06896551724137900e-01 -1.86206896551724133e+00 0 
-6.89655172413792261e-02 -1.86206896551724133e+00 0 
6.89655172413794482e-02 -1.86206896551724133e+00 0 
2.06896551724137900e-01 -1.86206896551724133e+00 0 
3.44827586206896353e-01 -1.86206896551724133e+00 0 
4.82758620689655249e-01 -1.86206896551724133e+00 0 
6.20689655172413701e-01 -1.86206896551724133e+00 0 
7.58620689655172598e-01 -1.86206896551724133e+00 0 
8.96551724137931050e-01 -1.86206896551724133e+00 0 
1.03448275862068950e+00 -1.86206896551724133e+00 0 
1.17241379310344840e+00 -1.86206896551724133e+00 0 
1.31034482758620685e+00 -1.86206896551724133e+00 0 
1.44827586206896530e+00 -1.86206896551724133e+00 0 
1.58620689655172420e+00 -1.86206896551724133e+00 0 
1.72413793103448265e+00 -1.86206896551724133e+00 0 
1.86206896551724155e+00 -1.86206896551724133e+00 0 
2.00000000000000000e+00 -1.86206896551724133e+00 0 
-2.00000000000000000e+00 -1.72413793103448265e+00 0 
-1.86206896551724133e+00 -1.72413793103448265e+00 0 
-1.72413793103448265e+00 -1.72413793103448265e+00 0 
-1.58620689655172420e+00 -1.72413793103448265e+00 0 
-1.44827586206896552e+00 -1.72413793103448265e+00 0 
-1.31034482758620685e+00 -1.72413793103448265e+00 0 
-1.17241379310344840e+00 -1.72413793103448265e+00 0 
-1.03448275862068950e+00 -1.72413793103448265e+00 0 
-8.96551724137931050e-01 -1.72413793103448265e+00 0 
-7.58620689655172376e-01 -1.72413793103448265e+00 0 
-6.20689655172413701e-01 -1.72413793103448265e+00 0 
-4.82758620689655249e-01 -1.72413793103448265e+00 0 
-3.44827586206896575e-01 -1.72413793103448265e+00 0 
-2.06896551724137900e-01 -1.72413793103448265e+00 0 
-6.89655172413792261e-02 -1.72413793103448265e+00 0 
6.89655172413794482e-02 -1.72413793103448265e+00 0 
2.06896551724137900e-01 -1.72413793103448265e+00 0 
3.44827586206896353e-01 -1.72413793103448265e+00 0 
4.82758620689655249e-01 -1.72413793103448265e+00 0 
6.20689655172413701e-01 -1.72413793103448265e+00 0 
7.58620689655172598e-01 -1.72413793103448265e+00 0 
8.96551724137931050e-01 -1.72413793103448265e+00 0 
1.03448275862068950e+00 -1.72413793103448265e+00 0 
1.17241379310344840e+00 -1.72413793103448265e+00 0 
1.31034482758620685e+00 -1.72413793103448265e+00 0 
1.44827586206896530e+00 -1.72413793103448265e+00 0 
1.58620689655172420e+00 -1.72413793103448265e+00 0 
1.72413793103448265e+00 -1.72413793103448265e+00 0 
1.86206896551724155e+00 -1.72413793103448265e+00 0 
2.00000000000000000e+00 -1.72413793103448265e+00 0 
-2.00000000000000000e+00 -1.58620689655172420e+00 0 
-1.86206896551724133e+00 -1.58620689655172420e+00 0 
-1.72413793103448265e+00 -1.58620689655172420e+00 0 
-1.58620689655172420e+00 -1.58620689655172420e+00 0 
-1.44827586206896552e+00 -1.58620689655172420e+00 0 
-1.31034482758620685e+00 -1.58620689655172420e+00 0 
-1.17241379310344840e+00 -1.58620689655172420e+00 0 
-1.03448275862068950e+00 -1.58620689655172420e+00 0 
-8.96551724137931050e-01 -1.58620689655172420e+00 0 
-7.58620689655172376e-01 -1.58620689655172420e+00 0 
-6.20689655172413701e-01 -1.58620689655172420e+00 0 
-4.82758620689655249e-01 -1.58620689655172420e+00 0 
-3.44827586206896575e-01 -1.58620689655172420e+00 0 
-2.06896551724137900e-01 -1.58620689655172420e+00 0 
-6.89655172413792261e-02 -1.58620689655172420e+00 0 
6.89655172413794482e-02 -1.58620689655172420e+00 0 
2.06896551724137900e-01 -1.58620689655172420e+00 0 
3.44827586206896353e-01 -1.58620689655172420e+00 0 
4.82758620689655249e-01 -1.58620689655172420e+00 0 
6.20689655172413701e-01 -1.58620689655172420e+00 0 
7.58620689655172598e-01 -1.58620689655172420e+00 0 
8.96551724137931050e-01 -1.58620689655172420e+00 0 
1.03448275862068950e+00 -1.58620689655172420e+00 0 
1.17241379310344840e+00 -1.58620689655172420e+00 0 
1.31034482758620685e+00 -1.58620689655172420e+00 0 
1.44827586206896530e+00 -1.58620689655172420e+00 0 
1.58620689655172420e+00 -1.58620689655172420e+00 0 
1.72413793103448265e+00 -1.58620689655172420e+00 0 
1.86206896551724155e+00 -1.58620689655172420e+00 0 
2.00000000000000000e+00 -1.58620689655172420e+00 0 
-2.00000000000000000e+00 -1.44827586206896552e+00 0 
-1.86206896551724133e+00 -1.44827586206896552e+00 0 
-1.72413793103448265e+00 -1.44827586206896552e+00 0 
-1.58620689655172420e+00 -1.44827586206896552e+00 0 
-1.44827586206896552e+00 -1.44827586206896552e+00 0 
-1.31034482758620685e+00 -1.44827586206896552e+00 0 
-1.17241379310344840e+00 -1.44827586206896552e+00 0 
-1.03448275862068950e+00 -1.44827586206896552e+00 0 
-8.96551724137931050e-01 -1.44827586206896552e+00 0 
-7.58620689655172376e-01 -1.44827586206896552e+00 0 
-6.20689655172413701e-01 -1.44827586206896552e+00 0 
-4.82758620689655249e-01 -1.44827586206896552e+00 0 
-3.44827586206896575e-01 -1.44827586206896552e+00 0 
-2.06896551724137900e-01 -1.44827586206896552e+00 0 
-6.89655172413792261e-02 -1.44827586206896552e+00 0 
6.89655172413794482e-02 -1.44827586206896552e+00 0 
2.06896551724137900e-01 -1.44827586206896552e+00 0 
3.44827586206896353e-01 -1.44827586206896552e+00 0 
4.82758620689655249e-01 -1.44827586206896552e+00 0 
6.20689655172413701e-01 -1.44827586206896552e+00 0 
7.58620689655172598e-01 -1.44827586206896552e+00 0 
8.96551724137931050e-01 -1.44827586206896552e+00 0 
1.03448275862068950e+00 -1.44827586206896552e+00 0 
1.17241379310344840e+00 -1.44827586206896552e+00 0 
1.31034482758620685e+00 -1.44827586206896552e+00 0 
1.44827586206896530e+00 -1.44827586206896552e+00 0 
1.58620689655172420e+00 -1.44827586206896552e+00 0 
1.72413793103448265e+00 -1.44827586206896552e+00 0 
1.86206896551724155e+00 -1.44827586206896552e+00 0 
2.00000000000000000e+00 -1.44827586206896552e+00 0 
-2.00000000000000000e+00 -1.31034482758620685e+00 0 
-1.86206896551724133e+00 -1.31034482758620685e+00 0 
-1.72413793103448265e+00 -1.31034482758620685e+00 0 
-1.58620689655172420e+00 -1.31034482758620685e+00 0 
-1.44827586206896552e+00 -1.31034482758620685e+00 0 
-1.31034482758620685e+00 -1.31034482758620685e+00 0 
-1.17241379310344840e+00 -1.31034482758620685e+00 0 
-1.03448275862068950e+00 -1.31034482758620685e+00 0 
-8.96551724137931050e-01 -1.31034482758620685e+00 0 
-7.58620689655172376e-01 -1.31034482758620685e+00 0 
-6.20689655172413701e-01 -1.31034482758620685e+00 0 
-4.82758620689655249e-01 -1.31034482758620685e+00 0 
-3.44827586206896575e-01 -1.31034482758620685e+00 0 
-2.06896551724137900e-01 -1.31034482758620685e+00 0 
-6.89655172413792261e-02 -1.31034482758620685e+00 0 
6.89655172413794482e-02 -1.31034482758620685e+00 0 
2.06896551724137900e-01 -1.31034482758620685e+00 0 
3.44827586206896353e-01 -1.31034482758620685e+00 0 
4.82758620689655249e-01 -1.31034482758620685e+00 0 
6.20689655172413701e-01 -1.31034482758620685e+00 0 
7.58620689655172598e-01 -1.31034482758620685e+00 0 
8.96551724137931050e-01 -1.31034482758620685e+00 0 
1.03448275862068950e+00 -1.31034482758620685e+00 0 
1.17241379310344840e+00 -1.31034482758620685e+00 0 
1.31034482758620685e+00 -1.31034482758620685e+00 0 
1.44827586206896530e+00 -1.31034482758620685e+00 0 
1.58620689655172420e+00 -1.31034482758620685e+00 0 
1.72413793103448265e+00 -1.31034482758620685e+00 0 
1.86206896551724155e+00 -1.31034482758620685e+00 0 
2.00000000000000000e+00 -1.31034482758620685e+00 0 
-2.00000000000000000e+00 -1.17241379310344840e+00 0 
-1.86206896551724133e+00 -1.17241379310344840e+00 0 
-1.72413793103448265e+00 -1.17241379310344840e+00 0 
-1.58620689655172420e+00 -1.17241379310344840e+00 0 
-1.44827586206896552e+00 -1.17241379310344840e+00 0 
-1.31034482758620685e+00 -1.17241379310344840e+00 0 
[...]
<PointData>
<DataArray type="Float64" Name="gaussian_hill" NumberOfComponents="1" format="ascii">
0.00000000000000000e+00
0.00000000000000000e+00
0.00000000000000000e+00
0.00000000000000000e+00
0.00000000000000000e+00
0.00000000000000000e+00
0.00000000000000000e+00
0.00000000000000000e+00
0.00000000000000000e+00
0.00000000000000000e+00
0.00000000000000000e+00
0.00000000000000000e+00
0.00000000000000000e+00
0.00000000000000000e+00
0.00000000000000000e+00
0.00000000000000000e+00
0.00000000000000000e+00
0.00000000000000000e+00
0.00000000000000000e+00
0.00000000000000000e+00
0.00000000000000000e+00
0.00000000000000000e+00
0.00000000000000000e+00
0.00000000000000000e+00
0.00000000000000000e+00
0.00000000000000000e+00
0.00000000000000000e+00
0.00000000000000000e+00
0.00000000000000000e+00
0.00000000000000000e+00
0.00000000000000000e+00
3.55631634313994822e-03
7.08539851850540584e-03
1.05588402690313578e-02
1.39460545051990278e-02
1.72135756048140964e-02
2.03247901788998174e-02
2.32401709899746831e-02
2.59180369070902382e-02
2.83158055125914999e-02
3.03916497780771094e-02
3.21064220892260874e-02
3.34256735677686337e-02
3.43215788280338552e-02
3.47745789342810904e-02
3.47745789342812223e-02
3.43215788280337858e-02
3.34256735677687031e-02
3.21064220892262192e-02
3.03916497780772378e-02
2.83158055125914930e-02
2.59180369070902764e-02
2.32401709899746622e-02
2.03247901788998521e-02
1.72135756048139889e-02
1.39460545051989359e-02
1.05588402690313561e-02
7.08539851850529308e-03
3.55631634313990875e-03
0.00000000000000000e+00
0.00000000000000000e+00
7.10016338279203813e-03
1.41461268014950285e-02
2.10813310492094161e-02
2.78448262906163986e-02
3.43698650564239969e-02
4.05833554948751701e-02
4.64063250870475341e-02
5.17554411123906238e-02
5.65455211796711890e-02
6.06928562299862348e-02
6.41190716107844921e-02
6.67551806871954506e-02
6.85454495118691665e-02
6.94506962252488674e-02
6.94506962252487842e-02
6.85454495118688056e-02
6.67551806871954645e-02
6.41190716107846448e-02
6.06928562299864638e-02
5.65455211796713347e-02
5.17554411123904989e-02
4.64063250870475272e-02
4.05833554948751701e-02
3.43698650564239552e-02
2.78448262906162494e-02
2.10813310492092114e-02
1.41461268014949123e-02
7.10016338279198869e-03
0.00000000000000000e+00
0.00000000000000000e+00
1.06163160950449465e-02
2.11520071414525931e-02
3.15228743930046143e-02
4.16380660994650348e-02
5.13979399160390746e-02
6.06932231869102626e-02
6.94056983363005031e-02
7.74104840211078948e-02
8.45798122678693143e-02
9.07880342816481389e-02
9.59174411763332596e-02
9.98643780843264106e-02
1.02545075425460597e-01
1.03900628578542112e-01
1.03900628578541918e-01
1.02545075425460222e-01
9.98643780843260775e-02
9.59174411763331763e-02
9.07880342816484442e-02
8.45798122678692588e-02
7.74104840211077561e-02
6.94056983363002949e-02
6.06932231869100683e-02
5.13979399160389566e-02
4.16380660994647919e-02
3.15228743930044200e-02
2.11520071414523676e-02
1.06163160950448424e-02
0.00000000000000000e+00
0.00000000000000000e+00
1.40843300944559387e-02
2.80624297764023554e-02
4.18232463867811988e-02
5.52467459913314196e-02
6.82010179769886316e-02
8.05411218865145911e-02
9.21099826162740526e-02
1.02741430275143084e-01
1.12265252232298426e-01
1.20513899617156209e-01
1.27330293277928858e-01
1.32576028669208174e-01
1.36139204947309189e-01
1.37941113027229223e-01
1.37941113027228918e-01
1.36139204947308468e-01
1.32576028669207119e-01
1.27330293277928636e-01
1.20513899617155876e-01
1.12265252232297871e-01
1.02741430275142209e-01
9.21099826162735114e-02
8.05411218865145773e-02
6.82010179769883540e-02
5.52467459913310588e-02
4.18232463867809698e-02
2.80624297764021959e-02
1.40843300944556993e-02
0.00000000000000000e+00
0.00000000000000000e+00
1.74766435306667085e-02
3.48225571067936265e-02
5.19009067259817783e-02
6.85634840804532353e-02
8.46470254092801244e-02
9.99717224183769293e-02
1.14342312065050800e-01
1.27551868538024277e-01
1.39388132941451193e-01
1.49641932209971851e-01
1.58116989573905076e-01
1.64640244526143759e-01
1.69071705709868403e-01
1.71312871255901472e-01
1.71312871255901306e-01
1.69071705709867709e-01
1.64640244526142593e-01
1.58116989573904049e-01
1.49641932209970768e-01
1.39388132941450277e-01
1.27551868538023333e-01
1.14342312065050217e-01
9.99717224183766934e-02
8.46470254092795277e-02
6.85634840804528328e-02
5.19009067259814175e-02
3.48225571067931963e-02
1.74766435306666565e-02
0.00000000000000000e+00
0.00000000000000000e+00
2.07574794364245134e-02
4.13611260022186678e-02
6.16496977471956975e-02
8.14481391533836557e-02
1.00563091948986189e-01
1.18781049376518358e-01
1.35869622542366536e-01
1.51582070465489827e-01
1.65664898363373309e-01
1.77867985506597909e-01
1.87956402082152196e-01
1.95722850496447026e-01
2.00999550969202301e-01
2.03668403585165886e-01
2.03668403585165553e-01
2.00999550969201690e-01
1.95722850496446138e-01
1.87956402082151391e-01
1.77867985506597021e-01
1.65664898363372476e-01
1.51582070465488994e-01
1.35869622542365814e-01
1.18781049376517955e-01
1.00563091948985175e-01
8.14481391533828925e-02
6.16496977471952048e-02
4.13611260022182653e-02
2.07574794364243122e-02
0.00000000000000000e+00
0.00000000000000000e+00
2.38827232637870909e-02
4.75901977136508475e-02
7.09384570872674675e-02
9.37272733035628969e-02
1.15734849444685678e-01
1.36715602433194777e-01
1.56401585814215677e-01
1.74507733386343095e-01
1.90740698757126709e-01
2.04810663831107909e-01
2.16445134707068415e-01
2.25403479582710342e-01
2.31490826239176495e-01
2.34569949751267687e-01
2.34569949751267298e-01
2.31490826239175523e-01
2.25403479582708705e-01
2.16445134707066583e-01
2.04810663831106354e-01
1.90740698757124905e-01
1.74507733386341790e-01
1.56401585814214011e-01
1.36715602433193334e-01
1.15734849444684151e-01
9.37272733035613981e-02
7.09384570872665654e-02
4.75901977136501952e-02
2.38827232637867821e-02
0.00000000000000000e+00
0.00000000000000000e+00
2.68008679914370912e-02
5.34070407596504912e-02
7.96138233589582939e-02
1.05197857137135350e-01
1.29911004282078163e-01
1.53477753796558425e-01
1.75596779266052966e-01
1.95946858428544174e-01
2.14196902191679583e-01
2.30019381431344427e-01
2.43106033920673398e-01
2.53184430648976222e-01
2.60033822416961768e-01
2.63498700994775292e-01
2.63498700994774293e-01
2.60033822416960159e-01
2.53184430648973169e-01
2.43106033920670178e-01
2.30019381431341902e-01
2.14196902191676392e-01
1.95946858428541620e-01
1.75596779266050135e-01
1.53477753796555899e-01
1.29911004282075915e-01
1.05197857137133616e-01
7.96138233589568228e-02
5.34070407596497210e-02
2.68008679914367755e-02
0.00000000000000000e+00
0.00000000000000000e+00
2.94550170848072931e-02
5.86981283657454014e-02
8.75062096590768501e-02
1.15635188285711815e-01
1.42813153513690894e-01
1.68737394082505515e-01
1.93076069028877445e-01
2.15474750267218046e-01
2.35567559728054321e-01
2.52992110497981426e-01
2.67407006612786713e-01
2.78510315664580288e-01
2.86057249429692462e-01
2.89875301076902347e-01
2.89875301076900849e-01
2.86057249429689242e-01
2.78510315664575514e-01
2.67407006612782272e-01
2.52992110497977374e-01
2.35567559728050796e-01
2.15474750267215576e-01
1.93076069028874642e-01
1.68737394082503156e-01
1.42813153513688479e-01
1.15635188285709872e-01
8.75062096590754346e-02
5.86981283657445202e-02
2.94550170848068352e-02
0.00000000000000000e+00
0.00000000000000000e+00
3.17858206214889499e-02
6.33450022645909855e-02
9.44385756024384432e-02
1.24804536446627021e-01
1.54150245381066836e-01
1.82149121029372085e-01
2.08442402308954028e-01
2.32646244590772849e-01
2.54363850867208530e-01
2.73201776617138126e-01
2.88789047788828968e-01
3.00797356582422626e-01
3.08960401740006996e-01
3.13090453075760666e-01
3.13090453075758002e-01
3.08960401740002333e-01
3.00797356582417352e-01
2.88789047788823527e-01
2.73201776617133019e-01
2.54363850867205199e-01
2.32646244590771073e-01
2.08442402308951197e-01
1.82149121029370642e-01
1.54150245381064949e-01
1.24804536446625244e-01
9.44385756024369444e-02
6.33450022645899724e-02
3.17858206214885544e-02
0.00000000000000000e+00
0.00000000000000000e+00
3.37351039094897429e-02
6.72315225763807783e-02
1.00237280294568964e-01
1.32475563919346895e-01
1.63636505609687954e-01
1.93373573183248465e-01
2.21305403088704278e-01
2.47023364141441187e-01
2.70104535079192187e-01
2.90129174403449541e-01
3.06701223331600326e-01
3.19469978278881572e-01
3.28150854714617357e-01
3.32543176771973037e-01
3.32543176771971372e-01
3.28150854714612139e-01
3.19469978278874966e-01
3.06701223331592776e-01
2.90129174403443935e-01
2.70104535079188302e-01
2.47023364141438578e-01
2.21305403088701669e-01
1.93373573183246356e-01
1.63636505609685901e-01
1.32475563919344702e-01
1.00237280294567688e-01
6.72315225763797930e-02
3.37351039094891739e-02
0.00000000000000000e+00
0.00000000000000000e+00
3.52498468416992672e-02
7.02518209560263479e-02
1.04743994099889021e-01
1.38438163538178116e-01
1.71011141280843826e-01
2.02100899577846743e-01
2.31308455192052231e-01
2.58205799344059794e-01
2.82349542438103729e-01
3.03299304584099927e-01
3.20639314726832603e-01
3.34001253082734650e-01
3.43086143666881560e-01
3.47683115707379975e-01
3.47683115707379198e-01
3.43086143666877841e-01
3.34001253082730043e-01
3.20639314726827385e-01
3.03299304584095153e-01
2.82349542438100509e-01
2.58205799344057019e-01
2.31308455192049567e-01
2.02100899577844162e-01
1.71011141280841772e-01
1.38438163538175979e-01
1.04743994099887675e-01
7.02518209560252793e-02
3.52498468416987468e-02
0.00000000000000000e+00
0.00000000000000000e+00
3.62861035427503101e-02
7.23181363213100808e-02
1.07827439138472148e-01
1.42518076940974209e-01
1.76057783329239631e-01
2.08073933763667618e-01
2.38155463080758328e-01
2.65861047394429451e-01
2.90733209992438235e-01
3.12317349456379179e-01
3.30184098744442267e-01
3.43952979318978058e-01
3.53315077129599198e-01
3.58052478849173017e-01
3.58052478849173406e-01
3.53315077129597643e-01
3.43952979318974783e-01
3.30184098744437715e-01
3.12317349456374294e-01
2.90733209992434072e-01
2.65861047394425398e-01
2.38155463080754359e-01
2.08073933763665286e-01
1.76057783329237327e-01
1.42518076940972738e-01
1.07827439138470829e-01
7.23181363213089151e-02
3.62861035427496995e-02
0.00000000000000000e+00
0.00000000000000000e+00
3.68124309437019501e-02
7.33676701599532549e-02
1.09393663854537818e-01
1.44590568106487793e-01
1.78621516077111742e-01
2.11108502223442074e-01
2.41634316120754422e-01
2.69750852775844152e-01
2.94993454230269514e-01
3.16900263929229487e-01
3.35034974914110606e-01
3.49010899732464908e-01
3.58514047866658137e-01
3.63322907829000397e-01
3.63322907829000785e-01
3.58514047866656471e-01
3.49010899732461799e-01
3.35034974914105721e-01
3.16900263929223158e-01
2.94993454230264851e-01
2.69750852775839822e-01
2.41634316120751091e-01
2.11108502223439715e-01
1.78621516077109133e-01
1.44590568106486184e-01
1.09393663854536735e-01
7.33676701599522418e-02
3.68124309437014297e-02
0.00000000000000000e+00
0.00000000000000000e+00
3.68124309437018946e-02
7.33676701599530884e-02
1.09393663854537790e-01
1.44590568106487516e-01
1.78621516077111242e-01
2.11108502223442074e-01
2.41634316120754061e-01
2.69750852775844208e-01
2.94993454230268570e-01
3.16900263929227655e-01
3.35034974914109829e-01
3.49010899732464797e-01
3.58514047866656860e-01
3.63322907829000286e-01
3.63322907828999009e-01
3.58514047866655750e-01
3.49010899732462576e-01
3.35034974914106609e-01
3.16900263929225046e-01
2.94993454230266239e-01
2.69750852775840710e-01
2.41634316120751619e-01
2.11108502223439631e-01
1.78621516077109244e-01
1.44590568106485989e-01
1.09393663854536541e-01
7.33676701599522835e-02
3.68124309437014297e-02
0.00000000000000000e+00
0.00000000000000000e+00
3.62861035427499493e-02
7.23181363213095674e-02
1.07827439138471634e-01
1.42518076940973848e-01
1.76057783329239076e-01
2.08073933763667285e-01
2.38155463080757107e-01
2.65861047394427008e-01
2.90733209992435959e-01
3.12317349456377402e-01
3.30184098744439991e-01
3.43952979318976060e-01
3.53315077129597421e-01
3.58052478849172351e-01
3.58052478849171629e-01
3.53315077129596866e-01
3.43952979318976337e-01
3.30184098744439380e-01
3.12317349456376625e-01
2.90733209992435737e-01
2.65861047394425953e-01
2.38155463080755719e-01
2.08073933763666341e-01
1.76057783329237855e-01
1.42518076940973265e-01
1.07827439138470954e-01
7.23181363213088318e-02
3.62861035427496578e-02
0.00000000000000000e+00
0.00000000000000000e+00
3.52498468416990174e-02
7.02518209560257512e-02
1.04743994099888216e-01
1.38438163538176867e-01
1.71011141280843104e-01
2.02100899577845688e-01
2.31308455192051010e-01
2.58205799344057352e-01
2.82349542438101231e-01
3.03299304584096097e-01
3.20639314726829494e-01
3.34001253082731653e-01
3.43086143666879340e-01
3.47683115707378865e-01
3.47683115707379087e-01
3.43086143666878174e-01
3.34001253082731653e-01
3.20639314726829716e-01
3.03299304584097373e-01
2.82349542438102008e-01
2.58205799344057907e-01
2.31308455192050094e-01
2.02100899577845189e-01
1.71011141280842827e-01
1.38438163538176257e-01
1.04743994099887175e-01
7.02518209560251683e-02
3.52498468416986913e-02
0.00000000000000000e+00
0.00000000000000000e+00
3.37351039094894237e-02
6.72315225763803620e-02
1.00237280294568035e-01
1.32475563919345452e-01
1.63636505609686483e-01
1.93373573183247188e-01
2.21305403088703195e-01
2.47023364141439106e-01
2.70104535079188635e-01
2.90129174403445322e-01
3.06701223331595552e-01
3.19469978278877742e-01
3.28150854714613360e-01
3.32543176771970928e-01
3.32543176771971205e-01
3.28150854714613527e-01
3.19469978278878353e-01
3.06701223331596218e-01
2.90129174403446544e-01
2.70104535079190633e-01
2.47023364141439827e-01
2.21305403088702252e-01
1.93373573183247049e-01
1.63636505609686012e-01
1.32475563919345146e-01
1.00237280294567202e-01
6.72315225763796265e-02
3.37351039094891114e-02
0.00000000000000000e+00
0.00000000000000000e+00
3.17858206214888181e-02
6.33450022645904859e-02
9.44385756024376521e-02
1.24804536446625911e-01
1.54150245381065448e-01
1.82149121029371031e-01
2.08442402308953140e-01
2.32646244590770906e-01
2.54363850867205199e-01
2.73201776617133352e-01
2.88789047788824804e-01
3.00797356582418685e-01
3.08960401740003110e-01
3.13090453075758446e-01
3.13090453075759001e-01
3.08960401740004220e-01
3.00797356582419961e-01
2.88789047788825526e-01
2.73201776617134462e-01
2.54363850867206476e-01
2.32646244590770324e-01
2.08442402308951613e-01
1.82149121029370309e-01
1.54150245381065143e-01
1.24804536446625342e-01
9.44385756024367223e-02
6.33450022645897087e-02
3.17858206214884226e-02
0.00000000000000000e+00
0.00000000000000000e+00
2.94550170848070572e-02
5.86981283657450129e-02
8.75062096590761285e-02
1.15635188285710594e-01
1.42813153513689201e-01
1.68737394082503989e-01
1.93076069028875336e-01
2.15474750267216048e-01
2.35567559728051046e-01
2.52992110497977540e-01
2.67407006612782716e-01
2.78510315664576791e-01
2.86057249429689187e-01
2.89875301076901126e-01
2.89875301076901848e-01
2.86057249429690852e-01
2.78510315664577957e-01
2.67407006612784159e-01
2.52992110497978262e-01
2.35567559728051684e-01
2.15474750267215076e-01
1.93076069028875030e-01
1.68737394082503434e-01
1.42813153513688867e-01
1.15635188285710053e-01
8.75062096590751848e-02
5.86981283657444439e-02
2.94550170848067172e-02
0.00000000000000000e+00
0.00000000000000000e+00
2.68008679914368900e-02
5.34070407596500332e-02
7.96138233589574612e-02
1.05197857137134379e-01
1.29911004282076720e-01
1.53477753796556760e-01
1.75596779266051273e-01
1.95946858428542536e-01
2.14196902191677113e-01
2.30019381431342373e-01
2.43106033920671205e-01
2.53184430648974390e-01
2.60033822416960658e-01
2.63498700994775292e-01
2.63498700994775792e-01
2.60033822416960381e-01
2.53184430648974113e-01
2.43106033920670511e-01
2.30019381431341402e-01
2.14196902191676586e-01
1.95946858428541787e-01
1.75596779266050856e-01
1.53477753796556177e-01
1.29911004282076109e-01
1.05197857137133713e-01
7.96138233589569755e-02
5.34070407596497487e-02
2.68008679914367824e-02
0.00000000000000000e+00
0.00000000000000000e+00
2.38827232637869001e-02
4.75901977136504728e-02
7.09384570872668430e-02
9.37272733035621197e-02
1.15734849444684956e-01
1.36715602433194056e-01
1.56401585814215011e-01
1.74507733386342734e-01
1.90740698757125987e-01
2.04810663831107187e-01
2.16445134707067804e-01
2.25403479582709787e-01
2.31490826239175940e-01
2.34569949751268131e-01
2.34569949751268630e-01
2.31490826239176412e-01
2.25403479582708871e-01
2.16445134707066805e-01
2.04810663831106271e-01
1.90740698757124710e-01
1.74507733386341429e-01
1.56401585814214233e-01
1.36715602433193251e-01
1.15734849444684193e-01
9.37272733035615230e-02
7.09384570872664266e-02
4.75901977136500842e-02
2.38827232637866954e-02
0.00000000000000000e+00
0.00000000000000000e+00
2.07574794364243538e-02
4.13611260022183763e-02
6.16496977471953506e-02
8.14481391533832116e-02
1.00563091948985620e-01
1.18781049376517803e-01
1.35869622542366009e-01
1.51582070465489577e-01
1.65664898363372670e-01
1.77867985506597187e-01
1.87956402082151947e-01
1.95722850496447193e-01
2.00999550969202495e-01
2.03668403585166469e-01
2.03668403585166469e-01
2.00999550969202662e-01
1.95722850496446499e-01
1.87956402082151308e-01
1.77867985506596243e-01
1.65664898363371810e-01
1.51582070465488661e-01
1.35869622542365620e-01
1.18781049376517359e-01
1.00563091948985286e-01
8.14481391533829757e-02
6.16496977471950036e-02
4.13611260022182722e-02
2.07574794364242358e-02
0.00000000000000000e+00
0.00000000000000000e+00
1.74766435306667710e-02
3.48225571067930784e-02
5.19009067259815354e-02
6.85634840804526524e-02
8.46470254092795971e-02
9.99717224183766517e-02
1.14342312065050120e-01
1.27551868538023583e-01
1.39388132941450388e-01
1.49641932209971074e-01
1.58116989573904493e-01
1.64640244526143231e-01
1.69071705709868653e-01
1.71312871255902249e-01
1.71312871255902222e-01
1.69071705709868625e-01
1.64640244526143176e-01
1.58116989573904021e-01
1.49641932209970852e-01
1.39388132941450138e-01
1.27551868538022972e-01
1.14342312065050009e-01
9.99717224183760411e-02
8.46470254092791807e-02
6.85634840804524859e-02
5.19009067259813481e-02
3.48225571067930714e-02
1.74766435306666669e-02
0.00000000000000000e+00
0.00000000000000000e+00
1.40843300944556594e-02
2.80624297764023416e-02
4.18232463867809004e-02
5.52467459913311837e-02
6.82010179769884095e-02
8.05411218865143969e-02
9.21099826162732616e-02
1.02741430275142265e-01
1.12265252232297733e-01
1.20513899617155681e-01
1.27330293277928303e-01
1.32576028669207729e-01
1.36139204947309245e-01
1.37941113027229195e-01
1.37941113027229584e-01
1.36139204947308939e-01
1.32576028669207341e-01
1.27330293277928330e-01
1.20513899617155584e-01
1.12265252232297066e-01
1.02741430275141862e-01
9.21099826162729979e-02
8.05411218865139389e-02
6.82010179769881181e-02
5.52467459913311004e-02
4.18232463867809490e-02
2.80624297764021507e-02
1.40843300944556663e-02
0.00000000000000000e+00
0.00000000000000000e+00
1.06163160950449118e-02
2.11520071414524370e-02
3.15228743930044200e-02
4.16380660994648683e-02
5.13979399160388040e-02
6.06932231869099226e-02
6.94056983362999896e-02
7.74104840211074646e-02
8.45798122678690367e-02
9.07880342816481944e-02
9.59174411763327739e-02
9.98643780843262163e-02
1.02545075425460527e-01
1.03900628578542292e-01
1.03900628578542015e-01
1.02545075425460486e-01
9.98643780843259249e-02
9.59174411763328294e-02
9.07880342816479585e-02
8.45798122678688563e-02
7.74104840211074369e-02
6.94056983363000590e-02
6.06932231869099087e-02
5.13979399160389289e-02
4.16380660994647711e-02
3.15228743930044131e-02
2.11520071414522844e-02
1.06163160950448841e-02
0.00000000000000000e+00
0.00000000000000000e+00
7.10016338279198002e-03
1.41461268014949418e-02
2.10813310492093293e-02
2.78448262906161523e-02
3.43698650564239830e-02
4.05833554948751077e-02
4.64063250870472635e-02
5.17554411123903810e-02
5.65455211796711474e-02
6.06928562299862140e-02
6.41190716107845060e-02
6.67551806871953118e-02
6.85454495118689999e-02
6.94506962252486593e-02
6.94506962252487980e-02
6.85454495118689444e-02
6.67551806871952841e-02
6.41190716107846587e-02