<?xml version="1.0"?>
<VTKFile type="StructuredGrid">
<StructuredGrid WholeExtent="0 29 0 29 0 0 ">
<Piece Extent="0 29 0 29 0 0 ">
<Points>
<DataArray type="Float64" Name="coordinate" NumberOfComponents="3" format="ascii">
-2.00000000000000000e+00 -2.00000000000000000e+00 0 
-1.86206896551724133e+00 -2.00000000000000000e+00 0 
-1.72413793103448265e+00 -2.00000000000000000e+00 0 
-1.58620689655172420e+00 -2.00000000000000000e+00 0 
-1.44827586206896552e+00 -2.00000000000000000e+00 0 
-1.31034482758620685e+00 -2.00000000000000000e+00 0 
-1.17241379310344840e+00 -2.00000000000000000e+00 0 
-1.03448275862068950e+00 -2.00000000000000000e+00 0 
-8.96551724137931050e-01 -2.00000000000000000e+00 0 
-7.58620689655172376e-01 -2.00000000000000000e+00 0 
-6.20689655172413701e-01 -2.00000000000000000e+00 0 
-4.82758620689655249e-01 -2.00000000000000000e+00 0 
-3.44827586206896575e-01 -2.00000000000000000e+00 0 
-2.06896551724137900e-01 -2.00000000000000000e+00 0 
-6.89655172413792261e-02 -2.00000000000000000e+00 0 
6.89655172413794482e-02 -2.00000000000000000e+00 0 
2.06896551724137900e-01 -2.00000000000000000e+00 0 
3.44827586206896353e-01 -2.00000000000000000e+00 0 
4.82758620689655249e-01 -2.00000000000000000e+00 0 
6.20689655172413701e-01 -2.00000000000000000e+00 0 
7.58620689655172598e-01 -2.00000000000000000e+00 0 
8.96551724137931050e-01 -2.00000000000000000e+00 0 
1.03448275862068950e+00 -2.00000000000000000e+00 0 
1.17241379310344840e+00 -2.00000000000000000e+00 0 
1.31034482758620685e+00 -2.00000000000000000e+00 0 
1.44827586206896530e+00 -2.00000000000000000e+00 0 
1.58620689655172420e+00 -2.00000000000000000e+00 0 
1.72413793103448265e+00 -2.00000000000000000e+00 0 
1.86206896551724155e+00 -2.00000000000000000e+00 0 
2.00000000000000000e+00 -2.00000000000000000e+00 0 
-2.00000000000000000e+00 -1.86206896551724133e+00 0 
-1.86206896551724133e+00 -1.86206896551724133e+00 0 
-1.72413793103448265e+00 -1.86206896551724133e+00 0 
-1.58620689655172420e+00 -1.86206896551724133e+00 0 
-1.44827586206896552e+00 -1.86206896551724133e+00 0 
-1.31034482758620685e+00 -1.86206896551724133e+00 0 
-1.17241379310344840e+00 -1.86206896551724133e+00 0 
-1.03448275862068950e+00 -1.86206896551724133e+00 0 
-8.96551724137931050e-01 -1.86206896551724133e+00 0 
-7.58620689655172376e-01 -1.86206896551724133e+00 0 
-6.20689655172413701e-01 -1.86206896551724133e+00 0 
-4.82758620689655249e-01 -1.86206896551724133e+00 0 
-3.44827586206896575e-01 -1.86206896551724133e+00 0 
-2.06896551724137900e-01 -1.86206896551724133e+00 0 
-6.89655172413792261e-02 -1.86206896551724133e+00 0 
6.89655172413794482e-02 -1.86206896551724133e+00 0 
2.06896551724137900e-01 -1.86206896551724133e+00 0 
3.44827586206896353e-01 -1.86206896551724133e+00 0 
4.82758620689655249e-01 -1.86206896551724133e+00 0 
6.20689655172413701e-01 -1.86206896551724133e+00 0 
7.58620689655172598e-01 -1.86206896551724133e+00 0 
8.96551724137931050e-01 -1.86206896551724133e+00 0 
1.03448275862068950e+00 -1.86206896551724133e+00 0 
1.17241379310344840e+00 -1.86206896551724133e+00 0 
1.31034482758620685e+00 -1.86206896551724133e+00 0 
1.44827586206896530e+00 -1.86206896551724133e+00 0 
1.58620689655172420e+00 -1.86206896551724133e+00 0 
1.72413793103448265e+00 -1.86206896551724133e+00 0 
1.86206896551724155e+00 -1.86206896551724133e+00 0 
2.00000000000000000e+00 -1.86206896551724133e+00 0 
-2.00000000000000000e+00 -1.72413793103448265e+00 0 
-1.86206896551724133e+00 -1.72413793103448265e+00 0 
-1.72413793103448265e+00 -1.72413793103448265e+00 0 
-1.58620689655172420e+00 -1.72413793103448265e+00 0 
-1.44827586206896552e+00 -1.72413793103448265e+00 0 
-1.31034482758620685e+00 -1.72413793103448265e+00 0 
-1.17241379310344840e+00 -1.72413793103448265e+00 0 
-1.03448275862068950e+00 -1.72413793103448265e+00 0 
-8.96551724137931050e-01 -1.72413793103448265e+00 0 
-7.58620689655172376e-01 -1.72413793103448265e+00 0 
-6.20689655172413701e-01 -1.72413793103448265e+00 0 
-4.82758620689655249e-01 -1.72413793103448265e+00 0 
-3.44827586206896575e-01 -1.72413793103448265e+00 0 
-2.06896551724137900e-01 -1.72413793103448265e+00 0 
-6.89655172413792261e-02 -1.72413793103448265e+00 0 
6.89655172413794482e-02 -1.72413793103448265e+00 0 
2.06896551724137900e-01 -1.72413793103448265e+00 0 
3.44827586206896353e-01 -1.72413793103448265e+00 0 
4.82758620689655249e-01 -1.72413793103448265e+00 0 
6.20689655172413701e-01 -1.72413793103448265e+00 0 
7.58620689655172598e-01 -1.72413793103448265e+00 0 
8.96551724137931050e-01 -1.72413793103448265e+00 0 
1.03448275862068950e+00 -1.72413793103448265e+00 0 
1.17241379310344840e+00 -1.72413793103448265e+00 0 
1.31034482758620685e+00 -1.72413793103448265e+00 0 
1.44827586206896530e+00 -1.72413793103448265e+00 0 
1.58620689655172420e+00 -1.72413793103448265e+00 0 
1.72413793103448265e+00 -1.72413793103448265e+00 0 
1.86206896551724155e+00 -1.72413793103448265e+00 0 
2.00000000000000000e+00 -1.72413793103448265e+00 0 
-2.00000000000000000e+00 -1.58620689655172420e+00 0 
-1.86206896551724133e+00 -1.58620689655172420e+00 0 
-1.72413793103448265e+00 -1.58620689655172420e+00 0 
-1.58620689655172420e+00 -1.58620689655172420e+00 0 
-1.44827586206896552e+00 -1.58620689655172420e+00 0 
-1.31034482758620685e+00 -1.58620689655172420e+00 0 
-1.17241379310344840e+00 -1.58620689655172420e+00 0 
-1.03448275862068950e+00 -1.58620689655172420e+00 0 
-8.96551724137931050e-01 -1.58620689655172420e+00 0 
-7.58620689655172376e-01 -1.58620689655172420e+00 0 
-6.20689655172413701e-01 -1.58620689655172420e+00 0 
-4.82758620689655249e-01 -1.58620689655172420e+00 0 
-3.44827586206896575e-01 -1.58620689655172420e+00 0 
-2.06896551724137900e-01 -1.58620689655172420e+00 0 
-6.89655172413792261e-02 -1.58620689655172420e+00 0 
6.89655172413794482e-02 -1.58620689655172420e+00 0 
2.06896551724137900e-01 -1.58620689655172420e+00 0 
3.44827586206896353e-01 -1.58620689655172420e+00 0 
4.82758620689655249e-01 -1.58620689655172420e+00 0 
6.20689655172413701e-01 -1.58620689655172420e+00 0 
7.58620689655172598e-01 -1.58620689655172420e+00 0 
8.96551724137931050e-01 -1.58620689655172420e+00 0 
1.03448275862068950e+00 -1.58620689655172420e+00 0 
1.17241379310344840e+00 -1.58620689655172420e+00 0 
1.31034482758620685e+00 -1.58620689655172420e+00 0 
1.44827586206896530e+00 -1.58620689655172420e+00 0 
1.58620689655172420e+00 -1.58620689655172420e+00 0 
1.72413793103448265e+00 -1.58620689655172420e+00 0 
1.86206896551724155e+00 -1.58620689655172420e+00 0 
2.00000000000000000e+00 -1.58620689655172420e+00 0 
-2.00000000000000000e+00 -1.44827586206896552e+00 0 
-1.86206896551724133e+00 -1.44827586206896552e+00 0 
-1.72413793103448265e+00 -1.44827586206896552e+00 0 
-1.58620689655172420e+00 -1.44827586206896552e+00 0 
-1.44827586206896552e+00 -1.44827586206896552e+00 0 
-1.31034482758620685e+00 -1.44827586206896552e+00 0 
-1.17241379310344840e+00 -1.44827586206896552e+00 0 
-1.03448275862068950e+00 -1.44827586206896552e+00 0 
-8.96551724137931050e-01 -1.44827586206896552e+00 0 
-7.58620689655172376e-01 -1.44827586206896552e+00 0 
-6.20689655172413701e-01 -1.44827586206896552e+00 0 
-4.82758620689655249e-01 -1.44827586206896552e+00 0 
-3.44827586206896575e-01 -1.44827586206896552e+00 0 
-2.06896551724137900e-01 -1.44827586206896552e+00 0 
-6.89655172413792261e-02 -1.44827586206896552e+00 0 
6.89655172413794482e-02 -1.44827586206896552e+00 0 
2.06896551724137900e-01 -1.44827586206896552e+00 0 
3.44827586206896353e-01 -1.44827586206896552e+00 0 
4.82758620689655249e-01 -1.44827586206896552e+00 0 
6.20689655172413701e-01 -1.44827586206896552e+00 0 
7.58620689655172598e-01 -1.44827586206896552e+00 0 
8.96551724137931050e-01 -1.44827586206896552e+00 0 
1.03448275862068950e+00 -1.44827586206896552e+00 0 
1.17241379310344840e+00 -1.44827586206896552e+00 0 
1.31034482758620685e+00 -1.44827586206896552e+00 0 
1.44827586206896530e+00 -1.44827586206896552e+00 0 
1.58620689655172420e+00 -1.44827586206896552e+00 0 
1.72413793103448265e+00 -1.44827586206896552e+00 0 
1.86206896551724155e+00 -1.44827586206896552e+00 0 
2.00000000000000000e+00 -1.44827586206896552e+00 0 
-2.00000000000000000e+00 -1.31034482758620685e+00 0 
-1.86206896551724133e+00 -1.31034482758620685e+00 0 
-1.72413793103448265e+00 -1.31034482758620685e+00 0 
-1.58620689655172420e+00 -1.31034482758620685e+00 0 
-1.44827586206896552e+00 -1.31034482758620685e+00 0 
-1.31034482758620685e+00 -1.31034482758620685e+00 0 
-1.17241379310344840e+00 -1.31034482758620685e+00 0 
-1.03448275862068950e+00 -1.31034482758620685e+00 0 
-8.96551724137931050e-01 -1.31034482758620685e+00 0 
-7.58620689655172376e-01 -1.31034482758620685e+00 0 
-6.20689655172413701e-01 -1.31034482758620685e+00 0 
-4.82758620689655249e-01 -1.31034482758620685e+00 0 
-3.44827586206896575e-01 -1.31034482758620685e+00 0 
-2.06896551724137900e-01 -1.31034482758620685e+00 0 
-6.89655172413792261e-02 -1.31034482758620685e+00 0 
6.89655172413794482e-02 -1.31034482758620685e+00 0 
2.06896551724137900e-01 -1.31034482758620685e+00 0 
3.44827586206896353e-01 -1.31034482758620685e+00 0 
4.82758620689655249e-01 -1.31034482758620685e+00 0 
6.20689655172413701e-01 -1.31034482758620685e+00 0 
7.58620689655172598e-01 -1.31034482758620685e+00 0 
8.96551724137931050e-01 -1.31034482758620685e+00 0 
1.03448275862068950e+00 -1.31034482758620685e+00 0 
1.17241379310344840e+00 -1.31034482758620685e+00 0 
1.31034482758620685e+00 -1.31034482758620685e+00 0 
1.44827586206896530e+00 -1.31034482758620685e+00 0 
1.58620689655172420e+00 -1.31034482758620685e+00 0 
1.72413793103448265e+00 -1.31034482758620685e+00 0 
1.86206896551724155e+00 -1.31034482758620685e+00 0 
2.00000000000000000e+00 -1.31034482758620685e+00 0 
-2.00000000000000000e+00 -1.17241379310344840e+00 0 
-1.86206896551724133e+00 -1.17241379310344840e+00 0 
-1.72413793103448265e+00 -1.17241379310344840e+00 0 
-1.58620689655172420e+00 -1.17241379310344840e+00 0 
-1.44827586206896552e+00 -1.17241379310344840e+00 0 
-1.31034482758620685e+00 -1.17241379310344840e+00 0 
[...]
<PointData>
<DataArray type="Float64" Name="gaussian_hill" NumberOfComponents="1" format="ascii">
0.00000000000000000e+00
0.00000000000000000e+00
0.00000000000000000e+00
0.00000000000000000e+00
0.00000000000000000e+00
0.00000000000000000e+00
0.00000000000000000e+00
0.00000000000000000e+00
0.00000000000000000e+00
0.00000000000000000e+00
0.00000000000000000e+00
0.00000000000000000e+00
0.00000000000000000e+00
0.00000000000000000e+00
0.00000000000000000e+00
0.00000000000000000e+00
0.00000000000000000e+00
0.00000000000000000e+00
0.00000000000000000e+00
0.00000000000000000e+00
0.00000000000000000e+00
0.00000000000000000e+00
0.00000000000000000e+00
0.00000000000000000e+00
0.00000000000000000e+00
0.00000000000000000e+00
0.00000000000000000e+00
0.00000000000000000e+00
0.00000000000000000e+00
0.00000000000000000e+00
0.00000000000000000e+00
3.84002031243015074e-03
7.67914526023847493e-03
1.15121305536222789e-02
1.53254606198486906e-02
1.90942646606206308e-02
2.27804376302670371e-02
2.63322465841797047e-02
2.96855749444585593e-02
3.27667948925761815e-02
3.54970763429895489e-02
3.77977611481636749e-02
3.95962787397872579e-02
4.08319799221040711e-02
4.14612397995532261e-02
4.14612397995533996e-02
4.08319799221042029e-02
3.95962787397873273e-02
3.77977611481637860e-02
3.54970763429896113e-02
3.27667948925762093e-02
2.96855749444585072e-02
2.63322465841796180e-02
2.27804376302669052e-02
1.90942646606205337e-02
1.53254606198485813e-02
1.15121305536222025e-02
7.67914526023843590e-03
3.84002031243012862e-03
0.00000000000000000e+00
0.00000000000000000e+00
7.73226801895699183e-03
1.54638412095225320e-02
2.31851602841079002e-02
3.08697994058828862e-02
3.84681630723384960e-02
4.59036302672794910e-02
5.30717215350232294e-02
5.98426053582931314e-02
6.60669295234669607e-02
7.15845916364355461e-02
7.62356942624362599e-02
7.98726164668939892e-02
8.23719276926114102e-02
8.36448151379468596e-02
8.36448151379470262e-02
8.23719276926116184e-02
7.98726164668940863e-02
7.62356942624363293e-02
7.15845916364356571e-02
6.60669295234668497e-02
5.98426053582929371e-02
5.30717215350229310e-02
4.59036302672792204e-02
3.84681630723382254e-02
3.08697994058826607e-02
2.31851602841077684e-02
1.54638412095224193e-02
7.73226801895693806e-03
0.00000000000000000e+00
0.00000000000000000e+00
1.17202383305533338e-02
2.34421102427526083e-02
3.51535534426516971e-02
4.68164286399694041e-02
5.83567389746670051e-02
6.96586094560381064e-02
8.05629257711002189e-02
9.08711346048866886e-02
1.00354197088322578e-01
1.08766110399186197e-01
1.15860837524037877e-01
1.21410993246895985e-01
1.25226308906067979e-01
1.27169808149701219e-01
1.27169808149701552e-01
1.25226308906068368e-01
1.21410993246896165e-01
1.15860837524038002e-01
1.08766110399186253e-01
1.00354197088322508e-01
9.08711346048864665e-02
8.05629257710998720e-02
6.96586094560375513e-02
5.83567389746664916e-02
4.68164286399690432e-02
3.51535534426514404e-02
2.34421102427524140e-02
1.17202383305532176e-02
0.00000000000000000e+00
0.00000000000000000e+00
1.58303775497158732e-02
3.16677399862101416e-02
4.75001145277530040e-02
6.32794005602396875e-02
7.89077551487240569e-02
9.42291458677305543e-02
1.09027334090089661e-01
1.23031007766451150e-01
1.35926076635514981e-01
1.47374340005915427e-01
1.57036931616334918e-01
1.64600252015898452e-01
1.69801634780703703e-01
1.72451857594782820e-01
1.72451857594783126e-01
1.69801634780703758e-01
1.64600252015898424e-01
1.57036931616334752e-01
1.47374340005915233e-01
1.35926076635514564e-01
1.23031007766450567e-01
1.09027334090088940e-01
9.42291458677296800e-02
7.89077551487233492e-02
6.32794005602390908e-02
4.75001145277526432e-02
3.16677399862099196e-02
1.58303775497157274e-02
0.00000000000000000e+00
0.00000000000000000e+00
2.00646860869954577e-02
4.01454022385455966e-02
6.02334661596570162e-02
8.02730503802406015e-02
1.00143317408156546e-01
1.19647235389258894e-01
1.38508749317262092e-01
1.56379281591724872e-01
1.72853615858717974e-01
1.87494164349806397e-01
1.99861553931598490e-01
2.09548541258469723e-01
2.16213641671861384e-01
2.19610664387658583e-01
2.19610664387658250e-01
2.16213641671860607e-01
2.09548541258468973e-01
1.99861553931597213e-01
1.87494164349804926e-01
1.72853615858716891e-01
1.56379281591723124e-01
1.38508749317260760e-01
1.19647235389257714e-01
1.00143317408155436e-01
8.02730503802396994e-02
6.02334661596564125e-02
4.01454022385452428e-02
2.00646860869953085e-02
0.00000000000000000e+00
0.00000000000000000e+00
2.43948892044356207e-02
4.88188958733785996e-02
7.32701827110138343e-02
9.76877872017394427e-02
1.21929081431613670e-01
1.45755526546970549e-01
1.68828859834534717e-01
1.90718983927293001e-01
2.10923675732999749e-01
2.28898902827517126e-01
2.44097180777697403e-01
2.56010218939629552e-01
2.64211290009859490e-01
2.68392496365426447e-01
2.68392496365425726e-01
2.64211290009857935e-01
2.56010218939627499e-01
2.44097180777695433e-01
2.28898902827515155e-01
2.10923675732997806e-01
1.90718983927290808e-01
1.68828859834532802e-01
1.45755526546969161e-01
1.21929081431612352e-01
9.76877872017385684e-02
7.32701827110130155e-02
4.88188958733782458e-02
2.43948892044354229e-02
0.00000000000000000e+00
0.00000000000000000e+00
2.87589596420700366e-02
5.75640941100241110e-02
8.64239783918449717e-02
1.15275277724792138e-01
1.43955161648756463e-01
1.72183704240800622e-01
1.99558918684054259e-01
2.25566030400656231e-01
2.49601193609141292e-01
2.71008228225437353e-01
2.89125283589977744e-01
3.03336860391112906e-01
3.13125599614465011e-01
3.18117901528197689e-01
3.18117901528196634e-01
3.13125599614462125e-01
3.03336860391110796e-01
2.89125283589976356e-01
2.71008228225435577e-01
2.49601193609138433e-01
2.25566030400653844e-01
1.99558918684051873e-01
1.72183704240799096e-01
1.43955161648755103e-01
1.15275277724791472e-01
8.64239783918440974e-02
5.75640941100237710e-02
2.87589596420698285e-02
0.00000000000000000e+00
0.00000000000000000e+00
3.30608229451904156e-02
6.61882789716220915e-02
9.94045241327635998e-02
1.32646540891944775e-01
1.65733261027841333e-01
1.98344400857028064e-01
2.30014202482332952e-01
2.60142051053032841e-01
2.88020281851009530e-01
3.12877550513180946e-01
3.33934134022855711e-01
3.50463744634314678e-01
3.61855187170835813e-01
3.67666749017209082e-01
3.67666749017207750e-01
3.61855187170834203e-01
3.50463744634312402e-01
3.33934134022853879e-01
3.12877550513178171e-01
2.88020281851006421e-01
2.60142051053030732e-01
2.30014202482330482e-01
1.98344400857025815e-01
1.65733261027839779e-01
1.32646540891943443e-01
9.94045241327624757e-02
6.61882789716215503e-02
3.30608229451901797e-02
0.00000000000000000e+00
0.00000000000000000e+00
3.71739499661319570e-02
7.44372985136207838e-02
1.11828110301066291e-01
1.49286020009711751e-01
1.86614014608077972e-01
2.23453627965002177e-01
2.59277302048771308e-01
2.93400266929845055e-01
3.25012378750827557e-01
3.53228098961769266e-01
3.77150450830511408e-01
3.95942684137238154e-01
4.08899888033473213e-01
4.15512247760982611e-01
4.15512247760981612e-01
4.08899888033472048e-01
3.95942684137236323e-01
3.77150450830509520e-01
3.53228098961766990e-01
3.25012378750824282e-01
2.93400266929842723e-01
2.59277302048768810e-01
2.23453627964999901e-01
1.86614014608075779e-01
1.49286020009710113e-01
1.11828110301064959e-01
7.44372985136201454e-02
3.71739499661316794e-02
0.00000000000000000e+00
0.00000000000000000e+00
4.09491837473943548e-02
8.20112663938123432e-02
1.23241295381232019e-01
1.64583259622147232e-01
2.05826738815609200e-01
2.46578564326781158e-01
2.86253793053158345e-01
3.24088724530991579e-01
3.59176533471521842e-01
3.90523531159311599e-01
4.17121390927595148e-01
4.38028255332399752e-01
4.52449915210291487e-01
4.59811601492520428e-01
4.59811601492520372e-01
4.52449915210289544e-01
4.38028255332397920e-01
4.17121390927594204e-01
3.90523531159308490e-01
3.59176533471518178e-01
3.24088724530988526e-01
2.86253793053155015e-01
2.46578564326779576e-01
2.05826738815607285e-01
1.64583259622145234e-01
1.23241295381230812e-01
8.20112663938117048e-02
4.09491837473939593e-02
0.00000000000000000e+00
0.00000000000000000e+00
4.42265583879723687e-02
8.85883336637042912e-02
1.33156871766087481e-01
1.77881361509345637e-01
2.22540656368421463e-01
2.66711723766685505e-01
3.09759323092408667e-01
3.50849991388025029e-01
3.88991038104464781e-01
4.23092418723249319e-01
4.52046378594322951e-01
4.74817055053840642e-01
4.90530280228532678e-01
4.98553078470922673e-01
4.98553078470921951e-01
4.90530280228531235e-01
4.74817055053838699e-01
4.52046378594319898e-01
4.23092418723244879e-01
3.88991038104461395e-01
3.50849991388021087e-01
3.09759323092406003e-01
2.66711723766683007e-01
2.22540656368419021e-01
1.77881361509343305e-01
1.33156871766085982e-01
8.85883336637032226e-02
4.42265583879719038e-02
0.00000000000000000e+00
0.00000000000000000e+00
4.68501239060003793e-02
9.38545565931781373e-02
1.41099175911728353e-01
1.88538245541662902e-01
2.35942621851608164e-01
2.82865538896268698e-01
3.28631189112463751e-01
3.72349471162091439e-01
4.12957718781481076e-01
4.49287168186755681e-01
4.80148694419660904e-01
5.04429405633883499e-01
5.21189555488536738e-01
5.29748400679310061e-01
5.29748400679309284e-01
5.21189555488534406e-01
5.04429405633881167e-01
4.80148694419659572e-01
4.49287168186754959e-01
4.12957718781478855e-01
3.72349471162088719e-01
3.28631189112460642e-01
2.82865538896266588e-01
2.35942621851605389e-01
1.88538245541660432e-01
1.41099175911726715e-01
9.38545565931768744e-02
4.68501239059997895e-02
0.00000000000000000e+00
0.00000000000000000e+00
4.86840524817645226e-02
9.75363838793096849e-02
1.46653463945349616e-01
1.95993570065631340e-01
2.45322270746809845e-01
2.94176300110759126e-01
3.41851340404090487e-01
3.87417295348283397e-01
4.29761951513576879e-01
4.67660708294169725e-01
4.99866651748385848e-01
5.25212134882192760e-01
5.42710765659493610e-01
5.51647808915088134e-01
5.51647808915087023e-01
5.42710765659493166e-01
5.25212134882194537e-01
4.99866651748387736e-01
4.67660708294170391e-01
4.29761951513575324e-01
3.87417295348280732e-01
3.41851340404086490e-01
2.94176300110755795e-01
2.45322270746807680e-01
1.95993570065629452e-01
1.46653463945348395e-01
9.75363838793090882e-02
4.86840524817640855e-02
0.00000000000000000e+00
0.00000000000000000e+00
4.96277750173294355e-02
9.94312132053342401e-02
1.49512414406938965e-01
1.99831867634070348e-01
2.50152515333665892e-01
3.00002629587721892e-01
3.48663174017354471e-01
3.95183345171088163e-01
4.38425234952315224e-01
4.77135255545293402e-01
5.10036469961096972e-01
5.35932768952509075e-01
5.53813504185861061e-01
5.62946259672362337e-01
5.62946259672361449e-01
5.53813504185862837e-01
5.35932768952512184e-01
5.10036469961100636e-01
4.77135255545295511e-01
4.38425234952314946e-01
3.95183345171086720e-01
3.48663174017350530e-01
3.00002629587719005e-01
2.50152515333662950e-01
1.99831867634067906e-01
1.49512414406937938e-01
9.94312132053337128e-02
4.96277750173290816e-02
0.00000000000000000e+00
0.00000000000000000e+00
4.96277750173293730e-02
9.94312132053343928e-02
1.49512414406939159e-01
1.99831867634070209e-01
2.50152515333665060e-01
3.00002629587721614e-01
3.48663174017353417e-01
3.95183345171086386e-01
4.38425234952314724e-01
4.77135255545294401e-01
5.10036469961097305e-01
5.35932768952509408e-01
5.53813504185861727e-01
5.62946259672361782e-01
5.62946259672362226e-01
5.53813504185861172e-01
5.35932768952510408e-01
5.10036469961099748e-01
4.77135255545296399e-01
4.38425234952316167e-01
3.95183345171087275e-01
3.48663174017351585e-01
3.00002629587718783e-01
2.50152515333663172e-01
1.99831867634068155e-01
1.49512414406937966e-01
9.94312132053337960e-02
4.96277750173291024e-02
0.00000000000000000e+00
0.00000000000000000e+00
4.86840524817644324e-02
9.75363838793096433e-02
1.46653463945349449e-01
1.95993570065630868e-01
2.45322270746808874e-01
2.94176300110757571e-01
3.41851340404088710e-01
3.87417295348281454e-01
4.29761951513575546e-01
4.67660708294170724e-01
4.99866651748386848e-01
5.25212134882190873e-01
5.42710765659491612e-01
5.51647808915086912e-01
5.51647808915087023e-01
5.42710765659493166e-01
5.25212134882193760e-01
4.99866651748388569e-01
4.67660708294171390e-01
4.29761951513576823e-01
3.87417295348281954e-01
3.41851340404087267e-01
2.94176300110755518e-01
2.45322270746807403e-01
1.95993570065629757e-01
1.46653463945348478e-01
9.75363838793092547e-02
4.86840524817642034e-02
0.00000000000000000e+00
0.00000000000000000e+00
4.68501239060001989e-02
9.38545565931775405e-02
1.41099175911727492e-01
1.88538245541661847e-01
2.35942621851606665e-01
2.82865538896267421e-01
3.28631189112461641e-01
3.72349471162089052e-01
4.12957718781478245e-01
4.49287168186754515e-01
4.80148694419659183e-01
5.04429405633880168e-01
5.21189555488533407e-01
5.29748400679307729e-01
5.29748400679308951e-01
5.21189555488535183e-01
5.04429405633882388e-01
4.80148694419660960e-01
4.49287168186755903e-01
4.12957718781479688e-01
3.72349471162088663e-01
3.28631189112460254e-01
2.82865538896265201e-01
2.35942621851605694e-01
1.88538245541660959e-01
1.41099175911727298e-01
9.38545565931772074e-02
4.68501239059997687e-02
0.00000000000000000e+00
0.00000000000000000e+00
4.42265583879721119e-02
8.85883336637035834e-02
1.33156871766086066e-01
1.77881361509343472e-01
2.22540656368419049e-01
2.66711723766683284e-01
3.09759323092406003e-01
3.50849991388021309e-01
3.88991038104461229e-01
4.23092418723246655e-01
4.52046378594320786e-01
4.74817055053837200e-01
4.90530280228530013e-01
4.98553078470920175e-01
4.98553078470921007e-01
4.90530280228530791e-01
4.74817055053839032e-01
4.52046378594320286e-01
4.23092418723246044e-01
3.88991038104461617e-01
3.50849991388021420e-01
3.09759323092405670e-01
2.66711723766682673e-01
2.22540656368419354e-01
1.77881361509343833e-01
1.33156871766085982e-01
8.85883336637031255e-02
4.42265583879717580e-02
0.00000000000000000e+00
0.00000000000000000e+00
4.09491837473940218e-02
8.20112663938117464e-02
1.23241295381230700e-01
1.64583259622145595e-01
2.05826738815606924e-01
2.46578564326778799e-01
2.86253793053154348e-01
3.24088724530987637e-01
3.59176533471517068e-01
3.90523531159307657e-01
4.17121390927593205e-01
4.38028255332396588e-01
4.52449915210287656e-01
4.59811601492519484e-01
4.59811601492518651e-01
4.52449915210288045e-01
4.38028255332397365e-01
4.17121390927593483e-01
3.90523531159307713e-01
3.59176533471517512e-01
3.24088724530987804e-01
2.86253793053155348e-01
2.46578564326778937e-01
2.05826738815607313e-01
1.64583259622146039e-01
1.23241295381230839e-01
8.20112663938115799e-02
4.09491837473938275e-02
0.00000000000000000e+00
0.00000000000000000e+00
3.71739499661316516e-02
7.44372985136201870e-02
1.11828110301064806e-01
1.49286020009710141e-01
1.86614014608075168e-01
2.23453627964998625e-01
2.59277302048767588e-01
2.93400266929840947e-01
3.25012378750822006e-01
3.53228098961765213e-01
3.77150450830508688e-01
3.95942684137235767e-01
4.08899888033471770e-01
4.15512247760980169e-01
4.15512247760980058e-01
4.08899888033470049e-01
3.95942684137235656e-01
3.77150450830509298e-01
3.53228098961765935e-01
3.25012378750823894e-01
2.93400266929842890e-01
2.59277302048769143e-01
2.23453627964999652e-01
1.86614014608076112e-01
1.49286020009710613e-01
1.11828110301065195e-01
7.44372985136201870e-02
3.71739499661316170e-02
0.00000000000000000e+00
0.00000000000000000e+00
3.30608229451900965e-02
6.61882789716214948e-02
9.94045241327623924e-02
1.32646540891943221e-01
1.65733261027839723e-01
1.98344400857025344e-01
2.30014202482328844e-01
2.60142051053028456e-01
2.88020281851004090e-01
3.12877550513176450e-01
3.33934134022852880e-01
3.50463744634311514e-01
3.61855187170833092e-01
3.67666749017205585e-01
3.67666749017204419e-01
3.61855187170831150e-01
3.50463744634310959e-01
3.33934134022853213e-01
3.12877550513178670e-01
2.88020281851006810e-01
2.60142051053031342e-01
2.30014202482330954e-01
1.98344400857026065e-01
1.65733261027840029e-01
1.32646540891943748e-01
9.94045241327626145e-02
6.61882789716214948e-02
3.30608229451901728e-02
0.00000000000000000e+00
0.00000000000000000e+00
2.87589596420697487e-02
5.75640941100237849e-02
8.64239783918443472e-02
1.15275277724791583e-01
1.43955161648755742e-01
1.72183704240799262e-01
1.99558918684051373e-01
2.25566030400653011e-01
2.49601193609137795e-01
2.71008228225434966e-01
2.89125283589976079e-01
3.03336860391110630e-01
3.13125599614462513e-01
3.18117901528194913e-01
3.18117901528193359e-01
3.13125599614461070e-01
3.03336860391109409e-01
2.89125283589976301e-01
2.71008228225435466e-01
2.49601193609138544e-01
2.25566030400654455e-01
1.99558918684052566e-01
1.72183704240799235e-01
1.43955161648755575e-01
1.15275277724791916e-01
8.64239783918444721e-02
5.75640941100237155e-02
2.87589596420698354e-02
0.00000000000000000e+00
0.00000000000000000e+00
2.43948892044354264e-02
4.88188958733783360e-02
7.32701827110131404e-02
9.76877872017389570e-02
1.21929081431612948e-01
1.45755526546969966e-01
1.68828859834532996e-01
1.90718983927290919e-01
2.10923675732997085e-01
2.28898902827514961e-01
2.44097180777695072e-01
2.56010218939627110e-01
2.64211290009857436e-01
2.68392496365423727e-01
2.68392496365423172e-01
2.64211290009855715e-01
2.56010218939626388e-01
2.44097180777695072e-01
2.28898902827515516e-01
2.10923675732997890e-01
1.90718983927291197e-01
1.68828859834533301e-01
1.45755526546969744e-01
1.21929081431613198e-01
9.76877872017392762e-02
7.32701827110133902e-02
4.88188958733784054e-02
2.43948892044354923e-02
0.00000000000000000e+00
0.00000000000000000e+00
2.00646860869952912e-02
4.01454022385453677e-02
6.02334661596566207e-02
8.02730503802400325e-02
1.00143317408155560e-01
1.19647235389257339e-01
1.38508749317260454e-01
1.56379281591722874e-01
1.72853615858716253e-01
1.87494164349804426e-01
1.99861553931596492e-01
2.09548541258468224e-01
2.16213641671859302e-01
2.19610664387656279e-01
2.19610664387656029e-01
2.16213641671858636e-01
2.09548541258467669e-01
1.99861553931596325e-01
1.87494164349804843e-01
1.72853615858716364e-01
1.56379281591723429e-01
1.38508749317260843e-01
1.19647235389258075e-01
1.00143317408156157e-01
8.02730503802405043e-02
6.02334661596568358e-02
4.01454022385455828e-02
2.00646860869954195e-02
0.00000000000000000e+00
0.00000000000000000e+00
1.58303775497157725e-02
3.16677399862100306e-02
4.75001145277527403e-02
6.32794005602392295e-02
7.89077551487233075e-02
9.42291458677293609e-02
1.09027334090088648e-01
1.23031007766450443e-01
1.35926076635514370e-01
1.47374340005915067e-01
1.57036931616334474e-01
1.64600252015897675e-01
1.69801634780702593e-01
1.72451857594781405e-01
1.72451857594780933e-01
1.69801634780702010e-01
1.64600252015897341e-01
1.57036931616333808e-01
1.47374340005914928e-01
1.35926076635514259e-01
1.23031007766450581e-01
1.09027334090089079e-01
9.42291458677298605e-02
7.89077551487237933e-02
6.32794005602394932e-02
4.75001145277528861e-02
3.16677399862101625e-02
1.58303775497158315e-02
0.00000000000000000e+00
0.00000000000000000e+00
1.17202383305532471e-02
2.34421102427525146e-02
3.51535534426514751e-02
4.68164286399690363e-02
5.83567389746664084e-02
6.96586094560373986e-02
8.05629257710997748e-02
9.08711346048863833e-02
1.00354197088322022e-01
1.08766110399185975e-01
1.15860837524037891e-01
1.21410993246895804e-01
1.25226308906067701e-01
1.27169808149700275e-01
1.27169808149700136e-01
1.25226308906066869e-01
1.21410993246895568e-01
1.15860837524037710e-01
1.08766110399185892e-01
1.00354197088322258e-01
9.08711346048863139e-02
8.05629257711000385e-02
6.96586094560376345e-02
5.83567389746666720e-02
4.68164286399691335e-02
3.51535534426516416e-02
2.34421102427525840e-02
1.17202383305532957e-02
0.00000000000000000e+00
0.00000000000000000e+00
7.73226801895695454e-03
1.54638412095224644e-02
2.31851602841077649e-02
3.08697994058826954e-02
3.84681630723381490e-02
4.59036302672790816e-02
5.30717215350227783e-02
5.98426053582928399e-02
6.60669295234666554e-02
7.15845916364354629e-02
7.62356942624364819e-02
7.98726164668940725e-02
8.23719276926114519e-02
8.36448151379466376e-02
8.36448151379466376e-02
8.23719276926109523e-02
7.98726164668936284e-02
7.62356942624361072e-02