<?xml version="1.0"?>
<VTKFile type="StructuredGrid">
<StructuredGrid WholeExtent="0 29 0 29 0 0 ">
<Piece Extent="0 29 0 29 0 0 ">
<Points>
<DataArray type="Float64" Name="coordinate" NumberOfComponents="3" format="ascii">
-2.00000000000000000e+00 -2.00000000000000000e+00 0 
-1.86206896551724133e+00 -2.00000000000000000e+00 0 
-1.72413793103448265e+00 -2.00000000000000000e+00 0 
-1.58620689655172420e+00 -2.00000000000000000e+00 0 
-1.44827586206896552e+00 -2.00000000000000000e+00 0 
-1.31034482758620685e+00 -2.00000000000000000e+00 0 
-1.17241379310344840e+00 -2.00000000000000000e+00 0 
-1.03448275862068950e+00 -2.00000000000000000e+00 0 
-8.96551724137931050e-01 -2.00000000000000000e+00 0 
-7.58620689655172376e-01 -2.00000000000000000e+00 0 
-6.20689655172413701e-01 -2.00000000000000000e+00 0 
-4.82758620689655249e-01 -2.00000000000000000e+00 0 
-3.44827586206896575e-01 -2.00000000000000000e+00 0 
-2.06896551724137900e-01 -2.00000000000000000e+00 0 
-6.89655172413792261e-02 -2.00000000000000000e+00 0 
6.89655172413794482e-02 -2.00000000000000000e+00 0 
2.06896551724137900e-01 -2.00000000000000000e+00 0 
3.44827586206896353e-01 -2.00000000000000000e+00 0 
4.82758620689655249e-01 -2.00000000000000000e+00 0 
6.20689655172413701e-01 -2.00000000000000000e+00 0 
7.58620689655172598e-01 -2.00000000000000000e+00 0 
8.96551724137931050e-01 -2.00000000000000000e+00 0 
1.03448275862068950e+00 -2.00000000000000000e+00 0 
1.17241379310344840e+00 -2.00000000000000000e+00 0 
1.31034482758620685e+00 -2.00000000000000000e+00 0 
1.44827586206896530e+00 -2.00000000000000000e+00 0 
1.58620689655172420e+00 -2.00000000000000000e+00 0 
1.72413793103448265e+00 -2.00000000000000000e+00 0 
1.86206896551724155e+00 -2.00000000000000000e+00 0 
2.00000000000000000e+00 -2.00000000000000000e+00 0 
-2.00000000000000000e+00 -1.86206896551724133e+00 0 
-1.86206896551724133e+00 -1.86206896551724133e+00 0 
-1.72413793103448265e+00 -1.86206896551724133e+00 0 
-1.58620689655172420e+00 -1.86206896551724133e+00 0 
-1.44827586206896552e+00 -1.86206896551724133e+00 0 
-1.31034482758620685e+00 -1.86206896551724133e+00 0 
-1.17241379310344840e+00 -1.86206896551724133e+00 0 
-1.03448275862068950e+00 -1.86206896551724133e+00 0 
-8.96551724137931050e-01 -1.86206896551724133e+00 0 
-7.58620689655172376e-01 -1.86206896551724133e+00 0 
-6.20689655172413701e-01 -1.86206896551724133e+00 0 
-4.82758620689655249e-01 -1.86206896551724133e+00 0 
-3.44827586206896575e-01 -1.86206896551724133e+00 0 
-2.06896551724137900e-01 -1.86206896551724133e+00 0 
-6.89655172413792261e-02 -1.86206896551724133e+00 0 
6.89655172413794482e-02 -1.86206896551724133e+00 0 
2.06896551724137900e-01 -1.86206896551724133e+00 0 
3.44827586206896353e-01 -1.86206896551724133e+00 0 
4.82758620689655249e-01 -1.86206896551724133e+00 0 
6.20689655172413701e-01 -1.86206896551724133e+00 0 
7.58620689655172598e-01 -1.86206896551724133e+00 0 
8.96551724137931050e-01 -1.86206896551724133e+00 0 
1.03448275862068950e+00 -1.86206896551724133e+00 0 
1.17241379310344840e+00 -1.86206896551724133e+00 0 
1.31034482758620685e+00 -1.86206896551724133e+00 0 
1.44827586206896530e+00 -1.86206896551724133e+00 0 
1.58620689655172420e+00 -1.86206896551724133e+00 0 
1.72413793103448265e+00 -1.86206896551724133e+00 0 
1.86206896551724155e+00 -1.86206896551724133e+00 0 
2.00000000000000000e+00 -1.86206896551724133e+00 0 
-2.00000000000000000e+00 -1.72413793103448265e+00 0 
-1.86206896551724133e+00 -1.72413793103448265e+00 0 
-1.72413793103448265e+00 -1.72413793103448265e+00 0 
-1.58620689655172420e+00 -1.72413793103448265e+00 0 
-1.44827586206896552e+00 -1.72413793103448265e+00 0 
-1.31034482758620685e+00 -1.72413793103448265e+00 0 
-1.17241379310344840e+00 -1.72413793103448265e+00 0 
-1.03448275862068950e+00 -1.72413793103448265e+00 0 
-8.96551724137931050e-01 -1.72413793103448265e+00 0 
-7.58620689655172376e-01 -1.72413793103448265e+00 0 
-6.20689655172413701e-01 -1.72413793103448265e+00 0 
-4.82758620689655249e-01 -1.72413793103448265e+00 0 
-3.44827586206896575e-01 -1.72413793103448265e+00 0 
-2.06896551724137900e-01 -1.72413793103448265e+00 0 
-6.89655172413792261e-02 -1.72413793103448265e+00 0 
6.89655172413794482e-02 -1.72413793103448265e+00 0 
2.06896551724137900e-01 -1.72413793103448265e+00 0 
3.44827586206896353e-01 -1.72413793103448265e+00 0 
4.82758620689655249e-01 -1.72413793103448265e+00 0 
6.20689655172413701e-01 -1.72413793103448265e+00 0 
7.58620689655172598e-01 -1.72413793103448265e+00 0 
8.96551724137931050e-01 -1.72413793103448265e+00 0 
1.03448275862068950e+00 -1.72413793103448265e+00 0 
1.17241379310344840e+00 -1.72413793103448265e+00 0 
1.31034482758620685e+00 -1.72413793103448265e+00 0 
1.44827586206896530e+00 -1.72413793103448265e+00 0 
1.58620689655172420e+00 -1.72413793103448265e+00 0 
1.72413793103448265e+00 -1.72413793103448265e+00 0 
1.86206896551724155e+00 -1.72413793103448265e+00 0 
2.00000000000000000e+00 -1.72413793103448265e+00 0 
-2.00000000000000000e+00 -1.58620689655172420e+00 0 
-1.86206896551724133e+00 -1.58620689655172420e+00 0 
-1.72413793103448265e+00 -1.58620689655172420e+00 0 
-1.58620689655172420e+00 -1.58620689655172420e+00 0 
-1.44827586206896552e+00 -1.58620689655172420e+00 0 
-1.31034482758620685e+00 -1.58620689655172420e+00 0 
-1.17241379310344840e+00 -1.58620689655172420e+00 0 
-1.03448275862068950e+00 -1.58620689655172420e+00 0 
-8.96551724137931050e-01 -1.58620689655172420e+00 0 
-7.58620689655172376e-01 -1.58620689655172420e+00 0 
-6.20689655172413701e-01 -1.58620689655172420e+00 0 
-4.82758620689655249e-01 -1.58620689655172420e+00 0 
-3.44827586206896575e-01 -1.58620689655172420e+00 0 
-2.06896551724137900e-01 -1.58620689655172420e+00 0 
-6.89655172413792261e-02 -1.58620689655172420e+00 0 
6.89655172413794482e-02 -1.58620689655172420e+00 0 
2.06896551724137900e-01 -1.58620689655172420e+00 0 
3.44827586206896353e-01 -1.58620689655172420e+00 0 
4.82758620689655249e-01 -1.58620689655172420e+00 0 
6.20689655172413701e-01 -1.58620689655172420e+00 0 
7.58620689655172598e-01 -1.58620689655172420e+00 0 
8.96551724137931050e-01 -1.58620689655172420e+00 0 
1.03448275862068950e+00 -1.58620689655172420e+00 0 
1.17241379310344840e+00 -1.58620689655172420e+00 0 
1.31034482758620685e+00 -1.58620689655172420e+00 0 
1.44827586206896530e+00 -1.58620689655172420e+00 0 
1.58620689655172420e+00 -1.58620689655172420e+00 0 
1.72413793103448265e+00 -1.58620689655172420e+00 0 
1.86206896551724155e+00 -1.58620689655172420e+00 0 
2.00000000000000000e+00 -1.58620689655172420e+00 0 
-2.00000000000000000e+00 -1.44827586206896552e+00 0 
-1.86206896551724133e+00 -1.44827586206896552e+00 0 
-1.72413793103448265e+00 -1.44827586206896552e+00 0 
-1.58620689655172420e+00 -1.44827586206896552e+00 0 
-1.44827586206896552e+00 -1.44827586206896552e+00 0 
-1.31034482758620685e+00 -1.44827586206896552e+00 0 
-1.17241379310344840e+00 -1.44827586206896552e+00 0 
-1.03448275862068950e+00 -1.44827586206896552e+00 0 
-8.96551724137931050e-01 -1.44827586206896552e+00 0 
-7.58620689655172376e-01 -1.44827586206896552e+00 0 
-6.20689655172413701e-01 -1.44827586206896552e+00 0 
-4.82758620689655249e-01 -1.44827586206896552e+00 0 
-3.44827586206896575e-01 -1.44827586206896552e+00 0 
-2.06896551724137900e-01 -1.44827586206896552e+00 0 
-6.89655172413792261e-02 -1.44827586206896552e+00 0 
6.89655172413794482e-02 -1.44827586206896552e+00 0 
2.06896551724137900e-01 -1.44827586206896552e+00 0 
3.44827586206896353e-01 -1.44827586206896552e+00 0 
4.82758620689655249e-01 -1.44827586206896552e+00 0 
6.20689655172413701e-01 -1.44827586206896552e+00 0 
7.58620689655172598e-01 -1.44827586206896552e+00 0 
8.96551724137931050e-01 -1.44827586206896552e+00 0 
1.03448275862068950e+00 -1.44827586206896552e+00 0 
1.17241379310344840e+00 -1.44827586206896552e+00 0 
1.31034482758620685e+00 -1.44827586206896552e+00 0 
1.44827586206896530e+00 -1.44827586206896552e+00 0 
1.58620689655172420e+00 -1.44827586206896552e+00 0 
1.72413793103448265e+00 -1.44827586206896552e+00 0 
1.86206896551724155e+00 -1.44827586206896552e+00 0 
2.00000000000000000e+00 -1.44827586206896552e+00 0 
-2.00000000000000000e+00 -1.31034482758620685e+00 0 
-1.86206896551724133e+00 -1.31034482758620685e+00 0 
-1.72413793103448265e+00 -1.31034482758620685e+00 0 
-1.58620689655172420e+00 -1.31034482758620685e+00 0 
-1.44827586206896552e+00 -1.31034482758620685e+00 0 
-1.31034482758620685e+00 -1.31034482758620685e+00 0 
-1.17241379310344840e+00 -1.31034482758620685e+00 0 
-1.03448275862068950e+00 -1.31034482758620685e+00 0 
-8.96551724137931050e-01 -1.31034482758620685e+00 0 
-7.58620689655172376e-01 -1.31034482758620685e+00 0 
-6.20689655172413701e-01 -1.31034482758620685e+00 0 
-4.82758620689655249e-01 -1.31034482758620685e+00 0 
-3.44827586206896575e-01 -1.31034482758620685e+00 0 
-2.06896551724137900e-01 -1.31034482758620685e+00 0 
-6.89655172413792261e-02 -1.31034482758620685e+00 0 
6.89655172413794482e-02 -1.31034482758620685e+00 0 
2.06896551724137900e-01 -1.31034482758620685e+00 0 
3.44827586206896353e-01 -1.31034482758620685e+00 0 
4.82758620689655249e-01 -1.31034482758620685e+00 0 
6.20689655172413701e-01 -1.31034482758620685e+00 0 
7.58620689655172598e-01 -1.31034482758620685e+00 0 
8.96551724137931050e-01 -1.31034482758620685e+00 0 
1.03448275862068950e+00 -1.31034482758620685e+00 0 
1.17241379310344840e+00 -1.31034482758620685e+00 0 
1.31034482758620685e+00 -1.31034482758620685e+00 0 
1.44827586206896530e+00 -1.31034482758620685e+00 0 
1.58620689655172420e+00 -1.31034482758620685e+00 0 
1.72413793103448265e+00 -1.31034482758620685e+00 0 
1.86206896551724155e+00 -1.31034482758620685e+00 0 
2.00000000000000000e+00 -1.31034482758620685e+00 0 
-2.00000000000000000e+00 -1.17241379310344840e+00 0 
-1.86206896551724133e+00 -1.17241379310344840e+00 0 
-1.72413793103448265e+00 -1.17241379310344840e+00 0 
-1.58620689655172420e+00 -1.17241379310344840e+00 0 
-1.44827586206896552e+00 -1.17241379310344840e+00 0 
-1.31034482758620685e+00 -1.17241379310344840e+00 0 
[...]
<PointData>
<DataArray type="Float64" Name="gaussian_hill" NumberOfComponents="1" format="ascii">
0.00000000000000000e+00
0.00000000000000000e+00
0.00000000000000000e+00
0.00000000000000000e+00
0.00000000000000000e+00
0.00000000000000000e+00
0.00000000000000000e+00
0.00000000000000000e+00
0.00000000000000000e+00
0.00000000000000000e+00
0.00000000000000000e+00
0.00000000000000000e+00
0.00000000000000000e+00
0.00000000000000000e+00
0.00000000000000000e+00
0.00000000000000000e+00
0.00000000000000000e+00
0.00000000000000000e+00
0.00000000000000000e+00
0.00000000000000000e+00
0.00000000000000000e+00
0.00000000000000000e+00
0.00000000000000000e+00
0.00000000000000000e+00
0.00000000000000000e+00
0.00000000000000000e+00
0.00000000000000000e+00
0.00000000000000000e+00
0.00000000000000000e+00
0.00000000000000000e+00
0.00000000000000000e+00
3.88001013509365125e-03
7.74607664755955216e-03
1.15812351317045193e-02
1.53628130903417752e-02
1.90603857733280570e-02
2.26346350799533497e-02
2.60372947557294329e-02
2.92122639809425481e-02
3.20978527228509003e-02
3.46299969737373509e-02
3.67461644926782918e-02
3.83895775864351238e-02
3.95133234463240779e-02
4.00839154714092705e-02
4.00839154714091803e-02
3.95133234463238905e-02
3.83895775864349226e-02
3.67461644926779657e-02
3.46299969737370317e-02
3.20978527228507407e-02
2.92122639809424788e-02
2.60372947557294607e-02
2.26346350799532872e-02
1.90603857733279494e-02
1.53628130903417422e-02
1.15812351317044152e-02
7.74607664755951747e-03
3.88001013509362913e-03
0.00000000000000000e+00
0.00000000000000000e+00
7.78157194468883772e-03
1.55357949999814678e-02
2.32291979143548800e-02
3.08167377527421814e-02
3.82376494747809145e-02
4.54131208989003096e-02
5.22461654643386481e-02
5.86238611750796931e-02
6.44218838877870792e-02
6.95110090871725594e-02
7.37650174594371294e-02
7.70692478710234413e-02
7.93289267249252666e-02
8.04763874239053656e-02
8.04763874239051435e-02
7.93289267249247393e-02
7.70692478710227613e-02
7.37650174594364771e-02
6.95110090871718933e-02
6.44218838877868294e-02
5.86238611750795821e-02
5.22461654643385370e-02
4.54131208989000598e-02
3.82376494747807549e-02
3.08167377527419628e-02
2.32291979143547725e-02
1.55357949999813637e-02
7.78157194468880303e-03
0.00000000000000000e+00
0.00000000000000000e+00
1.17198627008942430e-02
2.34000226805678932e-02
3.49914019190555245e-02
4.64271955677542092e-02
5.76164983307421857e-02
6.84407143150045916e-02
7.87533232306066450e-02
8.83832656486850110e-02
9.71418431228718571e-02
1.04832639564135438e-01
1.11263602859549934e-01
1.16260129671275178e-01
1.19677818128924543e-01
1.21413527644649188e-01
1.21413527644648730e-01
1.19677818128923572e-01
1.16260129671273901e-01
1.11263602859548699e-01
1.04832639564134356e-01
9.71418431228713158e-02
8.83832656486845808e-02
7.87533232306063535e-02
6.84407143150040503e-02
5.76164983307416514e-02
4.64271955677540080e-02
3.49914019190552886e-02
2.34000226805678065e-02
1.17198627008941892e-02
0.00000000000000000e+00
0.00000000000000000e+00
1.56977847148888766e-02
3.13450239561457455e-02
4.68783422343833980e-02
6.22100927921942631e-02
7.72196034029699885e-02
9.17482106112245815e-02
1.05598871149001391e-01
1.18540718736821066e-01
1.30318434003874190e-01
1.40665761529862210e-01
1.49322002215030086e-01
1.56049899561512384e-01
1.60653089753869466e-01
1.62991246726173405e-01
1.62991246726172934e-01
1.60653089753868467e-01
1.56049899561510830e-01
1.49322002215028282e-01
1.40665761529860933e-01
1.30318434003873190e-01
1.18540718736820858e-01
1.05598871149000767e-01
9.17482106112238738e-02
7.72196034029693223e-02
6.22100927921937844e-02
4.68783422343830858e-02
3.13450239561455651e-02
1.56977847148887829e-02
0.00000000000000000e+00
0.00000000000000000e+00
1.97010264551044159e-02
3.93425495659554536e-02
5.88485582761559753e-02
7.81117944786669238e-02
9.69824415099182213e-02
1.15261656382867617e-01
1.32700967961973726e-01
1.49008027992644704e-01
1.63858560282228727e-01
1.76913665275566678e-01
1.87840981883975855e-01
1.96337674593148076e-01
2.02152886627055911e-01
2.05107244374559072e-01
2.05107244374558850e-01
2.02152886627055078e-01
1.96337674593146855e-01
1.87840981883974356e-01
1.76913665275565568e-01
1.63858560282227755e-01
1.49008027992643316e-01
1.32700967961972588e-01
1.15261656382866368e-01
9.69824415099169584e-02
7.81117944786660912e-02
5.88485582761554757e-02
3.93425495659551205e-02
1.97010264551042598e-02
0.00000000000000000e+00
0.00000000000000000e+00
2.36945854027092694e-02
4.73228470941154666e-02
7.07980685124668940e-02
9.39949070435912998e-02
1.16735356075146415e-01
1.38780650346067430e-01
1.59830387646988176e-01
1.79529486183546444e-01
1.97482807207319866e-01
2.13276420602540651e-01
2.26503675193395565e-01
2.36793566844099967e-01
2.43838483319145899e-01
2.47418328424318462e-01
2.47418328424318629e-01
2.43838483319145427e-01
2.36793566844099329e-01
2.26503675193394288e-01
2.13276420602539235e-01
1.97482807207318201e-01
1.79529486183544668e-01
1.59830387646986177e-01
1.38780650346065515e-01
1.16735356075144917e-01
9.39949070435902034e-02
7.07980685124662695e-02
4.73228470941149601e-02
2.36945854027090438e-02
0.00000000000000000e+00
0.00000000000000000e+00
2.76212354715146720e-02
5.51715620597986178e-02
8.25556426446049652e-02
1.09631839755762031e-01
1.36195320695854716e-01
1.61968233155432684e-01
1.86598489437615728e-01
2.09667923267733841e-01
2.30709640519456083e-01
2.49233362134597292e-01
2.64756572235487875e-01
2.76838471921976470e-01
2.85113230964328335e-01
2.89318928363343053e-01
2.89318928363343608e-01
2.85113230964328390e-01
2.76838471921976470e-01
2.64756572235487264e-01
2.49233362134595737e-01
2.30709640519453585e-01
2.09667923267732231e-01
1.86598489437613868e-01
1.61968233155430852e-01
1.36195320695852939e-01
1.09631839755760865e-01
8.25556426446041186e-02
5.51715620597979933e-02
2.76212354715143354e-02
0.00000000000000000e+00
0.00000000000000000e+00
3.14023427383086778e-02
6.27313445176197887e-02
9.38851505244009676e-02
1.24707826242986458e-01
1.54969546362519195e-01
1.84354981804905255e-01
2.12461695868858019e-01
2.38809466774233509e-01
2.62860357108659237e-01
2.84048153380030366e-01
3.01814639600759937e-01
3.15649207114785169e-01
3.25127695444261344e-01
3.29946229617703202e-01
3.29946229617703313e-01
3.25127695444262232e-01
3.15649207114785502e-01
3.01814639600759382e-01
2.84048153380028645e-01
2.62860357108656018e-01
2.38809466774230428e-01
2.12461695868855355e-01
1.84354981804903117e-01
1.54969546362517280e-01
1.24707826242985570e-01
9.38851505244002460e-02
6.27313445176193446e-02
3.14023427383084211e-02
0.00000000000000000e+00
0.00000000000000000e+00
3.49412655977498557e-02
6.98086419957234805e-02
1.04495729504118492e-01
1.38834430227203848e-01
1.72572263190930220e-01
2.05358969016711607e-01
2.36744486293212986e-01
2.66189373034074139e-01
2.93087499557851516e-01
3.16799470441498476e-01
3.36693901406939999e-01
3.52192566078203539e-01
3.62814719697054533e-01
3.68215747442744046e-01
3.68215747442743602e-01
3.62814719697053756e-01
3.52192566078203539e-01
3.36693901406938945e-01
3.16799470441496811e-01
2.93087499557848519e-01
2.66189373034071308e-01
2.36744486293210238e-01
2.05358969016709747e-01
1.72572263190928804e-01
1.38834430227202904e-01
1.04495729504117868e-01
6.98086419957228976e-02
3.49412655977496475e-02
0.00000000000000000e+00
0.00000000000000000e+00
3.81293101195826142e-02
7.61856278368135686e-02
1.14059712002187535e-01
1.51573490121550497e-01
1.88454668124296648e-01
2.24321641291798018e-01
2.58681045753933303e-01
2.90939175036177444e-01
3.20427098870865290e-01
3.46437791674155560e-01
3.68272083005788842e-01
3.85288989138690419e-01
3.96955180246520434e-01
4.02888147887531578e-01
4.02888147887530801e-01
3.96955180246518491e-01
3.85288989138688531e-01
3.68272083005786122e-01
3.46437791674151729e-01
3.20427098870861182e-01
2.90939175036175113e-01
2.58681045753930472e-01
2.24321641291796381e-01
1.88454668124295066e-01
1.51573490121549859e-01
1.14059712002187161e-01
7.61856278368131107e-02
3.81293101195823020e-02
0.00000000000000000e+00
0.00000000000000000e+00
4.08538669243259725e-02
8.16365212260513340e-02
1.22237207037769025e-01
1.62470045352377551e-01
2.02046246607997082e-01
2.40557509281053267e-01
2.77473173417283614e-01
3.12152490548655959e-01
3.43871860801358009e-01
3.71865215546571259e-01
3.95374083492441908e-01
4.13702497508443179e-01
4.26271007432598048e-01
4.32663845846341433e-01
4.32663845846340434e-01
4.26271007432595384e-01
4.13702497508438627e-01
3.95374083492439243e-01
3.71865215546566819e-01
3.43871860801353291e-01
3.12152490548652295e-01
2.77473173417280561e-01
2.40557509281051268e-01
2.02046246607995333e-01
1.62470045352376663e-01
1.22237207037768025e-01
8.16365212260508066e-02
4.08538669243256672e-02
0.00000000000000000e+00
0.00000000000000000e+00
4.30079828032951875e-02
8.59468028555648023e-02
1.28705086601932028e-01
1.71091239324578787e-01
2.12803708309614287e-01
2.53413144275980329e-01
2.92359217707346020e-01
3.28963564908532846e-01
3.62458728169780531e-01
3.92031166042025425e-01
4.16874650612532593e-01
4.36248883564254675e-01
4.49537198581705655e-01
4.56296975298643659e-01
4.56296975298642049e-01
4.49537198581702824e-01
4.36248883564251067e-01
4.16874650612530262e-01
3.92031166042021706e-01
3.62458728169775979e-01
3.28963564908529016e-01
2.92359217707341856e-01
2.53413144275977553e-01
2.12803708309612066e-01
1.71091239324577649e-01
1.28705086601931057e-01
8.59468028555644414e-02
4.30079828032950487e-02
0.00000000000000000e+00
0.00000000000000000e+00
4.45002952306349994e-02
8.89331729930998294e-02
1.33187125382957572e-01
1.77066829287979566e-01
2.20262031606929337e-01
2.62328832484568619e-01
3.02686256450151958e-01
3.40629667440727757e-01
3.75360902974918087e-01
4.06033132451393441e-01
4.31806601326273964e-01
4.51909863498285103e-01
4.65700088429550907e-01
4.72715769623762494e-01
4.72715769623762216e-01
4.65700088429549908e-01
4.51909863498282383e-01
4.31806601326271411e-01
4.06033132451390555e-01
3.75360902974915422e-01
3.40629667440724981e-01
3.02686256450148572e-01
2.62328832484565899e-01
2.20262031606926700e-01
1.77066829287977928e-01
1.33187125382956434e-01
8.89331729930995935e-02
4.45002952306348121e-02
0.00000000000000000e+00
0.00000000000000000e+00
4.52640665528028438e-02
9.04617101895753145e-02
1.35481445740396111e-01
1.80126114030765727e-01
2.24081053298726324e-01
2.66894926356471551e-01
3.07976162588142033e-01
3.46606613128226826e-01
3.81972300524826391e-01
4.13209231477999261e-01
4.39460354381955409e-01
4.59938145332482007e-01
4.73986263564046884e-01
4.81133448131663755e-01
4.81133448131663755e-01
4.73986263564045163e-01
4.59938145332479065e-01
4.39460354381954743e-01
4.13209231477997485e-01
3.81972300524825614e-01
3.46606613128224272e-01
3.07976162588139535e-01
2.66894926356469275e-01
2.24081053298723215e-01
1.80126114030763923e-01
1.35481445740395723e-01
9.04617101895752174e-02
4.52640665528027675e-02
0.00000000000000000e+00
0.00000000000000000e+00
4.52640665528028091e-02
9.04617101895752868e-02
1.35481445740396389e-01
1.80126114030765005e-01
2.24081053298725130e-01
2.66894926356471329e-01
3.07976162588141145e-01
3.46606613128225272e-01
3.81972300524825725e-01
4.13209231477997208e-01
4.39460354381953300e-01
4.59938145332479953e-01
4.73986263564046439e-01
4.81133448131664254e-01
4.81133448131664643e-01
4.73986263564046606e-01
4.59938145332480064e-01
4.39460354381954521e-01
4.13209231477997208e-01
3.81972300524825337e-01
3.46606613128224161e-01
3.07976162588139202e-01
2.66894926356469275e-01
2.24081053298723659e-01
1.80126114030763923e-01
1.35481445740395362e-01
9.04617101895749814e-02
4.52640665528025593e-02
0.00000000000000000e+00
0.00000000000000000e+00
4.45002952306348815e-02
8.89331729930996351e-02
1.33187125382956933e-01
1.77066829287978816e-01
2.20262031606927589e-01
2.62328832484566288e-01
3.02686256450148294e-01
3.40629667440724704e-01
3.75360902974914756e-01
4.06033132451390388e-01
4.31806601326270689e-01
4.51909863498282161e-01
4.65700088429551740e-01
4.72715769623762216e-01
4.72715769623762661e-01
4.65700088429550185e-01
4.51909863498282938e-01
4.31806601326271189e-01
4.06033132451390666e-01
3.75360902974915034e-01
3.40629667440723594e-01
3.02686256450148961e-01
2.62328832484565677e-01
2.20262031606926950e-01
1.77066829287978150e-01
1.33187125382956323e-01
8.89331729930989273e-02
4.45002952306347010e-02
0.00000000000000000e+00
0.00000000000000000e+00
4.30079828032949515e-02
8.59468028555642333e-02
1.28705086601931556e-01
1.71091239324578009e-01
2.12803708309613093e-01
2.53413144275977664e-01
2.92359217707340802e-01
3.28963564908528572e-01
3.62458728169776201e-01
3.92031166042021262e-01
4.16874650612531261e-01
4.36248883564253676e-01
4.49537198581706710e-01
4.56296975298644436e-01
4.56296975298643548e-01
4.49537198581704711e-01
4.36248883564253509e-01
4.16874650612531206e-01
3.92031166042021539e-01
3.62458728169776201e-01
3.28963564908529182e-01
2.92359217707341801e-01
2.53413144275977997e-01
2.12803708309612594e-01
1.71091239324577316e-01
1.28705086601930446e-01
8.59468028555640390e-02
4.30079828032946740e-02
0.00000000000000000e+00
0.00000000000000000e+00
4.08538669243254590e-02
8.16365212260504458e-02
1.22237207037767776e-01
1.62470045352376302e-01
2.02046246607994751e-01
2.40557509281049964e-01
2.77473173417278951e-01
3.12152490548650630e-01
3.43871860801352680e-01
3.71865215546566652e-01
3.95374083492439410e-01
4.13702497508441513e-01
4.26271007432598825e-01
4.32663845846342821e-01
4.32663845846342099e-01
4.26271007432596605e-01
4.13702497508439626e-01
3.95374083492440076e-01
3.71865215546567318e-01
3.43871860801352847e-01
3.12152490548652572e-01
2.77473173417280727e-01
2.40557509281051130e-01
2.02046246607995666e-01
1.62470045352376524e-01
1.22237207037767526e-01
8.16365212260502099e-02
4.08538669243254104e-02
0.00000000000000000e+00
0.00000000000000000e+00
3.81293101195820383e-02
7.61856278368125833e-02
1.14059712002186411e-01
1.51573490121549193e-01
1.88454668124294150e-01
2.24321641291794938e-01
2.58681045753928363e-01
2.90939175036172615e-01
3.20427098870861016e-01
3.46437791674151452e-01
3.68272083005787232e-01
3.85288989138689697e-01
3.96955180246522155e-01
4.02888147887532633e-01
4.02888147887532244e-01
3.96955180246519213e-01
3.85288989138687532e-01
3.68272083005787232e-01
3.46437791674152284e-01
3.20427098870861571e-01
2.90939175036174169e-01
2.58681045753929584e-01
2.24321641291795854e-01
1.88454668124294566e-01
1.51573490121549387e-01
1.14059712002186356e-01
7.61856278368126250e-02
3.81293101195819759e-02
0.00000000000000000e+00
0.00000000000000000e+00
3.49412655977493838e-02
6.98086419957224674e-02
1.04495729504117119e-01
1.38834430227201683e-01
1.72572263190927666e-01
2.05358969016708137e-01
2.36744486293208406e-01
2.66189373034069088e-01
2.93087499557847520e-01
3.16799470441496034e-01
3.36693901406939666e-01
3.52192566078204039e-01
3.62814719697055144e-01
3.68215747442745600e-01
3.68215747442745434e-01
3.62814719697054033e-01
3.52192566078202485e-01
3.36693901406939111e-01
3.16799470441497200e-01
2.93087499557849074e-01
2.66189373034071031e-01
2.36744486293209849e-01
2.05358969016709358e-01
1.72572263190927971e-01
1.38834430227202210e-01
1.04495729504117271e-01
6.98086419957226201e-02
3.49412655977493769e-02
0.00000000000000000e+00
0.00000000000000000e+00
3.14023427383082754e-02
6.27313445176188589e-02
9.38851505243996354e-02
1.24707826242984765e-01
1.54969546362516392e-01
1.84354981804901896e-01
2.12461695868854245e-01
2.38809466774229345e-01
2.62860357108655629e-01
2.84048153380027701e-01
3.01814639600759438e-01
3.15649207114785668e-01
3.25127695444262899e-01
3.29946229617704534e-01
3.29946229617703368e-01
3.25127695444261677e-01
3.15649207114785113e-01
3.01814639600758827e-01
2.84048153380028534e-01
2.62860357108655129e-01
2.38809466774229762e-01
2.12461695868855271e-01
1.84354981804902618e-01
1.54969546362517030e-01
1.24707826242985140e-01
9.38851505244000240e-02
6.27313445176190532e-02
3.14023427383082754e-02
0.00000000000000000e+00
0.00000000000000000e+00
2.76212354715142383e-02
5.51715620597977505e-02
8.25556426446037994e-02
1.09631839755760740e-01
1.36195320695852523e-01
1.61968233155430186e-01
1.86598489437612647e-01
2.09667923267730455e-01
2.30709640519452336e-01
2.49233362134594072e-01
2.64756572235486376e-01
2.76838471921976526e-01
2.85113230964329945e-01
2.89318928363344996e-01
2.89318928363344330e-01
2.85113230964327946e-01
2.76838471921975637e-01
2.64756572235486209e-01
2.49233362134594433e-01
2.30709640519452169e-01
2.09667923267731066e-01
1.86598489437613313e-01
1.61968233155430436e-01
1.36195320695852690e-01
1.09631839755760727e-01
8.25556426446040215e-02
5.51715620597979309e-02
2.76212354715142799e-02
0.00000000000000000e+00
0.00000000000000000e+00
2.36945854027089467e-02
4.73228470941148907e-02
7.07980685124662834e-02
9.39949070435902589e-02
1.16735356075144667e-01
1.38780650346065348e-01
1.59830387646985428e-01
1.79529486183543668e-01
1.97482807207317479e-01
2.13276420602538291e-01
2.26503675193394066e-01
2.36793566844099107e-01
2.43838483319146981e-01
2.47418328424319406e-01
2.47418328424319822e-01
2.43838483319145566e-01
2.36793566844098913e-01
2.26503675193393733e-01
2.13276420602538402e-01
1.97482807207317229e-01
1.79529486183544473e-01
1.59830387646986510e-01
1.38780650346065765e-01
1.16735356075145166e-01
9.39949070435905920e-02
7.07980685124664777e-02
4.73228470941150503e-02
2.36945854027090508e-02
0.00000000000000000e+00
0.00000000000000000e+00
1.97010264551042563e-02
3.93425495659550373e-02
5.88485582761555520e-02
7.81117944786661050e-02
9.69824415099169029e-02
1.15261656382866021e-01
1.32700967961971616e-01
1.49008027992642511e-01
1.63858560282226978e-01
1.76913665275565540e-01
1.87840981883974328e-01
1.96337674593146910e-01
2.02152886627055772e-01
2.05107244374559572e-01
2.05107244374559405e-01
2.02152886627055522e-01
1.96337674593146910e-01
1.87840981883973995e-01
1.76913665275565124e-01
1.63858560282227006e-01
1.49008027992642955e-01
1.32700967961972671e-01
1.15261656382866576e-01
9.69824415099175552e-02
7.81117944786665491e-02
5.88485582761557949e-02
3.93425495659552454e-02
1.97010264551043326e-02
0.00000000000000000e+00
0.00000000000000000e+00
1.56977847148887274e-02
3.13450239561455374e-02
4.68783422343831691e-02
6.22100927921938884e-02
7.72196034029693362e-02
9.17482106112236379e-02
1.05598871149000323e-01
1.18540718736820080e-01
1.30318434003873190e-01
1.40665761529860961e-01
1.49322002215028504e-01
1.56049899561511080e-01
1.60653089753868605e-01
1.62991246726172934e-01
1.62991246726172684e-01
1.60653089753868772e-01
1.56049899561510858e-01
1.49322002215028421e-01
1.40665761529861016e-01
1.30318434003872885e-01
1.18540718736820441e-01
1.05598871149000767e-01
9.17482106112241652e-02
7.72196034029697526e-02
6.22100927921941174e-02
4.68783422343833356e-02
3.13450239561456900e-02
1.56977847148888523e-02
0.00000000000000000e+00
0.00000000000000000e+00
1.17198627008941875e-02
2.34000226805677544e-02
3.49914019190553649e-02
4.64271955677540843e-02
5.76164983307417347e-02
6.84407143150040226e-02
7.87533232306061176e-02
8.83832656486844004e-02
9.71418431228710383e-02
1.04832639564134356e-01
1.11263602859548977e-01
1.16260129671274248e-01
1.19677818128923585e-01
1.21413527644648273e-01
1.21413527644648259e-01
1.19677818128923655e-01
1.16260129671274151e-01
1.11263602859548949e-01
1.04832639564134356e-01
9.71418431228708440e-02
8.83832656486842339e-02
7.87533232306061870e-02
6.84407143150041891e-02
5.76164983307420470e-02
4.64271955677542925e-02
3.49914019190554273e-02
2.34000226805679383e-02
1.17198627008942048e-02
0.00000000000000000e+00
0.00000000000000000e+00
7.78157194468878481e-03
1.55357949999813671e-02
2.32291979143547274e-02
3.08167377527420218e-02
3.82376494747807272e-02
4.54131208988999280e-02
5.22461654643384121e-02
5.86238611750796168e-02
6.44218838877866767e-02
6.95110090871721431e-02
7.37650174594367269e-02
7.70692478710226503e-02
7.93289267249247670e-02
8.04763874239047827e-02
8.04763874239048660e-02
7.93289267249249752e-02
7.70692478710230944e-02
7.37650174594366853e-02