<?xml version="1.0"?>
<VTKFile type="StructuredGrid">
<StructuredGrid WholeExtent="0 29 0 29 0 0 ">
<Piece Extent="0 29 0 29 0 0 ">
<Points>
<DataArray type="Float64" Name="coordinate" NumberOfComponents="3" format="ascii">
-2.00000000000000000e+00 -2.00000000000000000e+00 0 
-1.86206896551724133e+00 -2.00000000000000000e+00 0 
-1.72413793103448265e+00 -2.00000000000000000e+00 0 
-1.58620689655172420e+00 -2.00000000000000000e+00 0 
-1.44827586206896552e+00 -2.00000000000000000e+00 0 
-1.31034482758620685e+00 -2.00000000000000000e+00 0 
-1.17241379310344840e+00 -2.00000000000000000e+00 0 
-1.03448275862068950e+00 -2.00000000000000000e+00 0 
-8.96551724137931050e-01 -2.00000000000000000e+00 0 
-7.58620689655172376e-01 -2.00000000000000000e+00 0 
-6.20689655172413701e-01 -2.00000000000000000e+00 0 
-4.82758620689655249e-01 -2.00000000000000000e+00 0 
-3.44827586206896575e-01 -2.00000000000000000e+00 0 
-2.06896551724137900e-01 -2.00000000000000000e+00 0 
-6.89655172413792261e-02 -2.00000000000000000e+00 0 
6.89655172413794482e-02 -2.00000000000000000e+00 0 
2.06896551724137900e-01 -2.00000000000000000e+00 0 
3.44827586206896353e-01 -2.00000000000000000e+00 0 
4.82758620689655249e-01 -2.00000000000000000e+00 0 
6.20689655172413701e-01 -2.00000000000000000e+00 0 
7.58620689655172598e-01 -2.00000000000000000e+00 0 
8.96551724137931050e-01 -2.00000000000000000e+00 0 
1.03448275862068950e+00 -2.00000000000000000e+00 0 
1.17241379310344840e+00 -2.00000000000000000e+00 0 
1.31034482758620685e+00 -2.00000000000000000e+00 0 
1.44827586206896530e+00 -2.00000000000000000e+00 0 
1.58620689655172420e+00 -2.00000000000000000e+00 0 
1.72413793103448265e+00 -2.00000000000000000e+00 0 
1.86206896551724155e+00 -2.00000000000000000e+00 0 
2.00000000000000000e+00 -2.00000000000000000e+00 0 
-2.00000000000000000e+00 -1.86206896551724133e+00 0 
-1.86206896551724133e+00 -1.86206896551724133e+00 0 
-1.72413793103448265e+00 -1.86206896551724133e+00 0 
-1.58620689655172420e+00 -1.86206896551724133e+00 0 
-1.44827586206896552e+00 -1.86206896551724133e+00 0 
-1.31034482758620685e+00 -1.86206896551724133e+00 0 
-1.17241379310344840e+00 -1.86206896551724133e+00 0 
-1.03448275862068950e+00 -1.86206896551724133e+00 0 
-8.96551724137931050e-01 -1.86206896551724133e+00 0 
-7.58620689655172376e-01 -1.86206896551724133e+00 0 
-6.20689655172413701e-01 -1.86206896551724133e+00 0 
-4.82758620689655249e-01 -1.86206896551724133e+00 0 
-3.44827586206896575e-01 -1.86206896551724133e+00 0 
-2.06896551724137900e-01 -1.86206896551724133e+00 0 
-6.89655172413792261e-02 -1.86206896551724133e+00 0 
6.89655172413794482e-02 -1.86206896551724133e+00 0 
2.06896551724137900e-01 -1.86206896551724133e+00 0 
3.44827586206896353e-01 -1.86206896551724133e+00 0 
4.82758620689655249e-01 -1.86206896551724133e+00 0 
6.20689655172413701e-01 -1.86206896551724133e+00 0 
7.58620689655172598e-01 -1.86206896551724133e+00 0 
8.96551724137931050e-01 -1.86206896551724133e+00 0 
1.03448275862068950e+00 -1.86206896551724133e+00 0 
1.17241379310344840e+00 -1.86206896551724133e+00 0 
1.31034482758620685e+00 -1.86206896551724133e+00 0 
1.44827586206896530e+00 -1.86206896551724133e+00 0 
1.58620689655172420e+00 -1.86206896551724133e+00 0 
1.72413793103448265e+00 -1.86206896551724133e+00 0 
1.86206896551724155e+00 -1.86206896551724133e+00 0 
2.00000000000000000e+00 -1.86206896551724133e+00 0 
-2.00000000000000000e+00 -1.72413793103448265e+00 0 
-1.86206896551724133e+00 -1.72413793103448265e+00 0 
-1.72413793103448265e+00 -1.72413793103448265e+00 0 
-1.58620689655172420e+00 -1.72413793103448265e+00 0 
-1.44827586206896552e+00 -1.72413793103448265e+00 0 
-1.31034482758620685e+00 -1.72413793103448265e+00 0 
-1.17241379310344840e+00 -1.72413793103448265e+00 0 
-1.03448275862068950e+00 -1.72413793103448265e+00 0 
-8.96551724137931050e-01 -1.72413793103448265e+00 0 
-7.58620689655172376e-01 -1.72413793103448265e+00 0 
-6.20689655172413701e-01 -1.72413793103448265e+00 0 
-4.82758620689655249e-01 -1.72413793103448265e+00 0 
-3.44827586206896575e-01 -1.72413793103448265e+00 0 
-2.06896551724137900e-01 -1.72413793103448265e+00 0 
-6.89655172413792261e-02 -1.72413793103448265e+00 0 
6.89655172413794482e-02 -1.72413793103448265e+00 0 
2.06896551724137900e-01 -1.72413793103448265e+00 0 
3.44827586206896353e-01 -1.72413793103448265e+00 0 
4.82758620689655249e-01 -1.72413793103448265e+00 0 
6.20689655172413701e-01 -1.72413793103448265e+00 0 
7.58620689655172598e-01 -1.72413793103448265e+00 0 
8.96551724137931050e-01 -1.72413793103448265e+00 0 
1.03448275862068950e+00 -1.72413793103448265e+00 0 
1.17241379310344840e+00 -1.72413793103448265e+00 0 
1.31034482758620685e+00 -1.72413793103448265e+00 0 
1.44827586206896530e+00 -1.72413793103448265e+00 0 
1.58620689655172420e+00 -1.72413793103448265e+00 0 
1.72413793103448265e+00 -1.72413793103448265e+00 0 
1.86206896551724155e+00 -1.72413793103448265e+00 0 
2.00000000000000000e+00 -1.72413793103448265e+00 0 
-2.00000000000000000e+00 -1.58620689655172420e+00 0 
-1.86206896551724133e+00 -1.58620689655172420e+00 0 
-1.72413793103448265e+00 -1.58620689655172420e+00 0 
-1.58620689655172420e+00 -1.58620689655172420e+00 0 
-1.44827586206896552e+00 -1.58620689655172420e+00 0 
-1.31034482758620685e+00 -1.58620689655172420e+00 0 
-1.17241379310344840e+00 -1.58620689655172420e+00 0 
-1.03448275862068950e+00 -1.58620689655172420e+00 0 
-8.96551724137931050e-01 -1.58620689655172420e+00 0 
-7.58620689655172376e-01 -1.58620689655172420e+00 0 
-6.20689655172413701e-01 -1.58620689655172420e+00 0 
-4.82758620689655249e-01 -1.58620689655172420e+00 0 
-3.44827586206896575e-01 -1.58620689655172420e+00 0 
-2.06896551724137900e-01 -1.58620689655172420e+00 0 
-6.89655172413792261e-02 -1.58620689655172420e+00 0 
6.89655172413794482e-02 -1.58620689655172420e+00 0 
2.06896551724137900e-01 -1.58620689655172420e+00 0 
3.44827586206896353e-01 -1.58620689655172420e+00 0 
4.82758620689655249e-01 -1.58620689655172420e+00 0 
6.20689655172413701e-01 -1.58620689655172420e+00 0 
7.58620689655172598e-01 -1.58620689655172420e+00 0 
8.96551724137931050e-01 -1.58620689655172420e+00 0 
1.03448275862068950e+00 -1.58620689655172420e+00 0 
1.17241379310344840e+00 -1.58620689655172420e+00 0 
1.31034482758620685e+00 -1.58620689655172420e+00 0 
1.44827586206896530e+00 -1.58620689655172420e+00 0 
1.58620689655172420e+00 -1.58620689655172420e+00 0 
1.72413793103448265e+00 -1.58620689655172420e+00 0 
1.86206896551724155e+00 -1.58620689655172420e+00 0 
2.00000000000000000e+00 -1.58620689655172420e+00 0 
-2.00000000000000000e+00 -1.44827586206896552e+00 0 
-1.86206896551724133e+00 -1.44827586206896552e+00 0 
-1.72413793103448265e+00 -1.44827586206896552e+00 0 
-1.58620689655172420e+00 -1.44827586206896552e+00 0 
-1.44827586206896552e+00 -1.44827586206896552e+00 0 
-1.31034482758620685e+00 -1.44827586206896552e+00 0 
-1.17241379310344840e+00 -1.44827586206896552e+00 0 
-1.03448275862068950e+00 -1.44827586206896552e+00 0 
-8.96551724137931050e-01 -1.44827586206896552e+00 0 
-7.58620689655172376e-01 -1.44827586206896552e+00 0 
-6.20689655172413701e-01 -1.44827586206896552e+00 0 
-4.82758620689655249e-01 -1.44827586206896552e+00 0 
-3.44827586206896575e-01 -1.44827586206896552e+00 0 
-2.06896551724137900e-01 -1.44827586206896552e+00 0 
-6.89655172413792261e-02 -1.44827586206896552e+00 0 
6.89655172413794482e-02 -1.44827586206896552e+00 0 
2.06896551724137900e-01 -1.44827586206896552e+00 0 
3.44827586206896353e-01 -1.44827586206896552e+00 0 
4.82758620689655249e-01 -1.44827586206896552e+00 0 
6.20689655172413701e-01 -1.44827586206896552e+00 0 
7.58620689655172598e-01 -1.44827586206896552e+00 0 
8.96551724137931050e-01 -1.44827586206896552e+00 0 
1.03448275862068950e+00 -1.44827586206896552e+00 0 
1.17241379310344840e+00 -1.44827586206896552e+00 0 
1.31034482758620685e+00 -1.44827586206896552e+00 0 
1.44827586206896530e+00 -1.44827586206896552e+00 0 
1.58620689655172420e+00 -1.44827586206896552e+00 0 
1.72413793103448265e+00 -1.44827586206896552e+00 0 
1.86206896551724155e+00 -1.44827586206896552e+00 0 
2.00000000000000000e+00 -1.44827586206896552e+00 0 
-2.00000000000000000e+00 -1.31034482758620685e+00 0 
-1.86206896551724133e+00 -1.31034482758620685e+00 0 
-1.72413793103448265e+00 -1.31034482758620685e+00 0 
-1.58620689655172420e+00 -1.31034482758620685e+00 0 
-1.44827586206896552e+00 -1.31034482758620685e+00 0 
-1.31034482758620685e+00 -1.31034482758620685e+00 0 
-1.17241379310344840e+00 -1.31034482758620685e+00 0 
-1.03448275862068950e+00 -1.31034482758620685e+00 0 
-8.96551724137931050e-01 -1.31034482758620685e+00 0 
-7.58620689655172376e-01 -1.31034482758620685e+00 0 
-6.20689655172413701e-01 -1.31034482758620685e+00 0 
-4.82758620689655249e-01 -1.31034482758620685e+00 0 
-3.44827586206896575e-01 -1.31034482758620685e+00 0 
-2.06896551724137900e-01 -1.31034482758620685e+00 0 
-6.89655172413792261e-02 -1.31034482758620685e+00 0 
6.89655172413794482e-02 -1.31034482758620685e+00 0 
2.06896551724137900e-01 -1.31034482758620685e+00 0 
3.44827586206896353e-01 -1.31034482758620685e+00 0 
4.82758620689655249e-01 -1.31034482758620685e+00 0 
6.20689655172413701e-01 -1.31034482758620685e+00 0 
7.58620689655172598e-01 -1.31034482758620685e+00 0 
8.96551724137931050e-01 -1.31034482758620685e+00 0 
1.03448275862068950e+00 -1.31034482758620685e+00 0 
1.17241379310344840e+00 -1.31034482758620685e+00 0 
1.31034482758620685e+00 -1.31034482758620685e+00 0 
1.44827586206896530e+00 -1.31034482758620685e+00 0 
1.58620689655172420e+00 -1.31034482758620685e+00 0 
1.72413793103448265e+00 -1.31034482758620685e+00 0 
1.86206896551724155e+00 -1.31034482758620685e+00 0 
2.00000000000000000e+00 -1.31034482758620685e+00 0 
-2.00000000000000000e+00 -1.17241379310344840e+00 0 
-1.86206896551724133e+00 -1.17241379310344840e+00 0 
-1.72413793103448265e+00 -1.17241379310344840e+00 0 
-1.58620689655172420e+00 -1.17241379310344840e+00 0 
-1.44827586206896552e+00 -1.17241379310344840e+00 0 
-1.31034482758620685e+00 -1.17241379310344840e+00 0 
[...]
<PointData>
<DataArray type="Float64" Name="gaussian_hill" NumberOfComponents="1" format="ascii">
0.00000000000000000e+00
0.00000000000000000e+00
0.00000000000000000e+00
0.00000000000000000e+00
0.00000000000000000e+00
0.00000000000000000e+00
0.00000000000000000e+00
0.00000000000000000e+00
0.00000000000000000e+00
0.00000000000000000e+00
0.00000000000000000e+00
0.00000000000000000e+00
0.00000000000000000e+00
0.00000000000000000e+00
0.00000000000000000e+00
0.00000000000000000e+00
0.00000000000000000e+00
0.00000000000000000e+00
0.00000000000000000e+00
0.00000000000000000e+00
0.00000000000000000e+00
0.00000000000000000e+00
0.00000000000000000e+00
0.00000000000000000e+00
0.00000000000000000e+00
0.00000000000000000e+00
0.00000000000000000e+00
0.00000000000000000e+00
0.00000000000000000e+00
0.00000000000000000e+00
0.00000000000000000e+00
3.76500771396534682e-03
7.50753142699898002e-03
1.12031356421612941e-02
1.48237213500568288e-02
1.83362721224071025e-02
2.17022358314728422e-02
2.48776599446637985e-02
2.78141240400483526e-02
3.04604300752688191e-02
3.27649269712307692e-02
3.46782705244156123e-02
3.61563620216852413e-02
3.71631774767840622e-02
3.76731997554117307e-02
3.76731997554117862e-02
3.71631774767840900e-02
3.61563620216853523e-02
3.46782705244157510e-02
3.27649269712308108e-02
3.04604300752689301e-02
2.78141240400481896e-02
2.48776599446637534e-02
2.17022358314727902e-02
1.83362721224069290e-02
1.48237213500567767e-02
1.12031356421611900e-02
7.50753142699892191e-03
3.76500771396529954e-03
0.00000000000000000e+00
0.00000000000000000e+00
7.53062025242847658e-03
1.50165991945692689e-02
2.24093564760993631e-02
2.96529155923233902e-02
3.66813689012639166e-02
4.34176225789670647e-02
4.97736597290478339e-02
5.56524104321236487e-02
6.09511501178425855e-02
6.55661782716819436e-02
6.93983768919975152e-02
7.23591314882050668e-02
7.43760335579509296e-02
7.53977838411046264e-02
7.53977838411046264e-02
7.43760335579509158e-02
7.23591314882052333e-02
6.93983768919977095e-02
6.55661782716820685e-02
6.09511501178426895e-02
5.56524104321236626e-02
4.97736597290476535e-02
4.34176225789670231e-02
3.66813689012639166e-02
2.96529155923232618e-02
2.24093564760992070e-02
1.50165991945691562e-02
7.53062025242843148e-03
0.00000000000000000e+00
0.00000000000000000e+00
1.12931306163259193e-02
2.25201117751093124e-02
3.36088008854263098e-02
4.44757988218174860e-02
5.50225833948742304e-02
6.51335828919089033e-02
7.46765524792870894e-02
8.35053902210179250e-02
9.14652756242925608e-02
9.83997562156707223e-02
1.04159175213782165e-01
1.08609655239509079e-01
1.11641754973015428e-01
1.13177915388016276e-01
1.13177915388016220e-01
1.11641754973015511e-01
1.08609655239509620e-01
1.04159175213782429e-01
9.83997562156709166e-02
9.14652756242923803e-02
8.35053902210177723e-02
7.46765524792868812e-02
6.51335828919087784e-02
5.50225833948739529e-02
4.44757988218171807e-02
3.36088008854260323e-02
2.25201117751091390e-02
1.12931306163257701e-02
0.00000000000000000e+00
0.00000000000000000e+00
1.50406047855287106e-02
2.99945136159194166e-02
4.47668970330304464e-02
5.92476427638138972e-02
7.33060914190371421e-02
8.67883923443586863e-02
9.95179726516164931e-02
1.11299307998277211e-01
1.21924840663480152e-01
1.31184541608153460e-01
1.38877297260242810e-01
1.44823058796610921e-01
1.48874557080014874e-01
1.50927384566264311e-01
1.50927384566264339e-01
1.48874557080015013e-01
1.44823058796610560e-01
1.38877297260242616e-01
1.31184541608152988e-01
1.21924840663479431e-01
1.11299307998276656e-01
9.95179726516163266e-02
8.67883923443584226e-02
7.33060914190368090e-02
5.92476427638133629e-02
4.47668970330300994e-02
2.99945136159192639e-02
1.50406047855285736e-02
0.00000000000000000e+00
0.00000000000000000e+00
1.87497466236648709e-02
3.73935066792411147e-02
5.58149290450643404e-02
7.38781785441044447e-02
9.14212026815091894e-02
1.08252318463982089e-01
1.24150748653055545e-01
1.38871352216606153e-01
1.52153358785309889e-01
1.63732473021551000e-01
1.73355311409622653e-01
1.80794822488502649e-01
1.85865167644315238e-01
1.88434535041004991e-01
1.88434535041005019e-01
1.85865167644315266e-01
1.80794822488502760e-01
1.73355311409622598e-01
1.63732473021550196e-01
1.52153358785309306e-01
1.38871352216605237e-01
1.24150748653054560e-01
1.08252318463981437e-01
9.14212026815083290e-02
7.38781785441039174e-02
5.58149290450638061e-02
3.73935066792408510e-02
1.87497466236647391e-02
0.00000000000000000e+00
0.00000000000000000e+00
2.23838943247403402e-02
4.46440326025008966e-02
6.66439868644590899e-02
8.82234955129857779e-02
1.09190198264969479e-01
1.29315405721570215e-01
1.48334674598177063e-01
1.65953493876671215e-01
1.81857858134363143e-01
1.95728962375099125e-01
2.07260758366534681e-01
2.16178729110902107e-01
2.22258022273043088e-01
2.25339074917943055e-01
2.25339074917943194e-01
2.22258022273042977e-01
2.16178729110902051e-01
2.07260758366534181e-01
1.95728962375098070e-01
1.81857858134361977e-01
1.65953493876670050e-01
1.48334674598176175e-01
1.29315405721569271e-01
1.09190198264968702e-01
8.82234955129851117e-02
6.66439868644584238e-02
4.46440326025006606e-02
2.23838943247401528e-02
0.00000000000000000e+00
0.00000000000000000e+00
2.58924394848343911e-02
5.16450988808522041e-02
7.71031774986161572e-02
1.02083609050351978e-01
1.26365225113339308e-01
1.49683671583027922e-01
1.71731994151150119e-01
1.92167262056825550e-01
2.10622975583995897e-01
2.26726361266425425e-01
2.40119071364453623e-01
2.50479346564859651e-01
2.57543441120110128e-01
2.61124096023587771e-01
2.61124096023587327e-01
2.57543441120110461e-01
2.50479346564858318e-01
2.40119071364452596e-01
2.26726361266423870e-01
2.10622975583994537e-01
1.92167262056824273e-01
1.71731994151148787e-01
1.49683671583026229e-01
1.26365225113338392e-01
1.02083609050351354e-01
7.71031774986153384e-02
5.16450988808517253e-02
2.58924394848341136e-02
0.00000000000000000e+00
0.00000000000000000e+00
2.92118618111894685e-02
5.82698373659575122e-02
8.70026853256050531e-02
1.15206489428588882e-01
1.42633248792579992e-01
1.68984927158673970e-01
1.93914022057611268e-01
2.17031089022448609e-01
2.37918938845465028e-01
2.56152485517531114e-01
2.71322542043150539e-01
2.83061328900430564e-01
2.91067155296627467e-01
2.95125713561412428e-01
2.95125713561411651e-01
2.91067155296626634e-01
2.83061328900429121e-01
2.71322542043148929e-01
2.56152485517528727e-01
2.37918938845462502e-01
2.17031089022445889e-01
1.93914022057608715e-01
1.68984927158671694e-01
1.42633248792578354e-01
1.15206489428587563e-01
8.70026853256043592e-02
5.82698373659570612e-02
2.92118618111893019e-02
0.00000000000000000e+00
0.00000000000000000e+00
3.22684320487354667e-02
6.43709030368300461e-02
9.61218500511044904e-02
1.27298788041295075e-01
1.57629376524188819e-01
1.86784617874011766e-01
2.14379388469158744e-01
2.39980803236568480e-01
2.63124107847526101e-01
2.83334957396654652e-01
3.00156169894091607e-01
3.13176437554047782e-01
3.22058129966483753e-01
3.26561296535241019e-01
3.26561296535240075e-01
3.22058129966479978e-01
3.13176437554043341e-01
3.00156169894087443e-01
2.83334957396650600e-01
2.63124107847522493e-01
2.39980803236564816e-01
2.14379388469155996e-01
1.86784617874009656e-01
1.57629376524187015e-01
1.27298788041293603e-01
9.61218500511035606e-02
6.43709030368294771e-02
3.22684320487352655e-02
0.00000000000000000e+00
0.00000000000000000e+00
3.49824575587626210e-02
6.97889644610442672e-02
1.04221895724014385e-01
1.38042783664573898e-01
1.70957971642520523e-01
2.02611014560634767e-01
2.32583157495780735e-01
2.60402454994058286e-01
2.85561205545599772e-01
3.07540452668518649e-01
3.25839450023588828e-01
3.40007314601597777e-01
3.49673701399287606e-01
3.54575299175092673e-01
3.54575299175091230e-01
3.49673701399283443e-01
3.40007314601592670e-01
3.25839450023583665e-01
3.07540452668514208e-01
2.85561205545596275e-01
2.60402454994054844e-01
2.32583157495777765e-01
2.02611014560631880e-01
1.70957971642518441e-01
1.38042783664572205e-01
1.04221895724013219e-01
6.97889644610433652e-02
3.49824575587622741e-02
0.00000000000000000e+00
0.00000000000000000e+00
3.72737459610241600e-02
7.43636382188347239e-02
1.11062343096852506e-01
1.47118266369233336e-01
1.82219970516185603e-01
2.15987870948434552e-01
2.47974656476149802e-01
2.77675051787774296e-01
3.04544580831578815e-01
3.28025990525233180e-01
3.47581067119025922e-01
3.62724844309448013e-01
3.73058774558424955e-01
3.78299394484934104e-01
3.78299394484933993e-01
3.73058774558421791e-01
3.62724844309443628e-01
3.47581067119021092e-01
3.28025990525228295e-01
3.04544580831575373e-01
2.77675051787770688e-01
2.47974656476146721e-01
2.15987870948432081e-01
1.82219970516183827e-01
1.47118266369231920e-01
1.11062343096851535e-01
7.43636382188337941e-02
3.72737459610237645e-02
0.00000000000000000e+00
0.00000000000000000e+00
3.90677711174764464e-02
7.79458355262691721e-02
1.16419557532466605e-01
1.54227296811326964e-01
1.91043829971748735e-01
2.26471475851686643e-01
2.60040461593442185e-01
2.91219192373993130e-01
3.19434072144088088e-01
3.44097461953372319e-01
3.64641376459989897e-01
3.80553737591513841e-01
3.91413546553860292e-01
3.96921289010438549e-01
3.96921289010439216e-01
3.91413546553858349e-01
3.80553737591510899e-01
3.64641376459985789e-01
3.44097461953369488e-01
3.19434072144085479e-01
2.91219192373990465e-01
2.60040461593438632e-01
2.26471475851683673e-01
1.91043829971746654e-01
1.54227296811325548e-01
1.16419557532465620e-01
7.79458355262682978e-02
3.90677711174760786e-02
0.00000000000000000e+00
0.00000000000000000e+00
4.03018788806730338e-02
8.04101935803087919e-02
1.20105436442010938e-01
1.59119173321775220e-01
1.97116766322470022e-01
2.33688096484217345e-01
2.68347887928508610e-01
3.00546328316059486e-01
3.29689625398251196e-01
3.55169035730336535e-01
3.76395874295655630e-01
3.92839198077670926e-01
4.04062377534905093e-01
4.09754719326516914e-01
4.09754719326518024e-01
4.04062377534904482e-01
3.92839198077668983e-01
3.76395874295652966e-01
3.55169035730334592e-01
3.29689625398248864e-01
3.00546328316056377e-01
2.68347887928505224e-01
2.33688096484214958e-01
1.97116766322467829e-01
1.59119173321774193e-01
1.20105436442009869e-01
8.04101935803080425e-02
4.03018788806725897e-02
0.00000000000000000e+00
0.00000000000000000e+00
4.09308033623692752e-02
8.16661291725831878e-02
1.21984033901208516e-01
1.61612657498935830e-01
2.00212585672049470e-01
2.37367364324032132e-01
2.72583800916673280e-01
3.05302764210399147e-01
3.34920118420040547e-01
3.60816301993011346e-01
3.82392012568729733e-01
3.99106626351985960e-01
4.10515490006609085e-01
4.16302170331283750e-01
4.16302170331283139e-01
4.10515490006607420e-01
3.99106626351983018e-01
3.82392012568727846e-01
3.60816301993009292e-01
3.34920118420037938e-01
3.05302764210395816e-01
2.72583800916670338e-01
2.37367364324029995e-01
2.00212585672047944e-01
1.61612657498935025e-01
1.21984033901207586e-01
8.16661291725823968e-02
4.09308033623690462e-02
0.00000000000000000e+00
0.00000000000000000e+00
4.09308033623692474e-02
8.16661291725830768e-02
1.21984033901207892e-01
1.61612657498935719e-01
2.00212585672048970e-01
2.37367364324031049e-01
2.72583800916672170e-01
3.05302764210397815e-01
3.34920118420039936e-01
3.60816301993011179e-01
3.82392012568729678e-01
3.99106626351985405e-01
4.10515490006608752e-01
4.16302170331283028e-01
4.16302170331282362e-01
4.10515490006606698e-01
3.99106626351983185e-01
3.82392012568728012e-01
3.60816301993009514e-01
3.34920118420038437e-01
3.05302764210395761e-01
2.72583800916670727e-01
2.37367364324030411e-01
2.00212585672048277e-01
1.61612657498935247e-01
1.21984033901207600e-01
8.16661291725827576e-02
4.09308033623689699e-02
0.00000000000000000e+00
0.00000000000000000e+00
4.03018788806728048e-02
8.04101935803085144e-02
1.20105436442010341e-01
1.59119173321774637e-01
1.97116766322469050e-01
2.33688096484216623e-01
2.68347887928507556e-01
3.00546328316058986e-01
3.29689625398250197e-01
3.55169035730335703e-01
3.76395874295654020e-01
3.92839198077668761e-01
4.04062377534902373e-01
4.09754719326515027e-01
4.09754719326514860e-01
4.04062377534901651e-01
3.92839198077667207e-01
3.76395874295652577e-01
3.55169035730336036e-01
3.29689625398249253e-01
3.00546328316057099e-01
2.68347887928506446e-01
2.33688096484215541e-01
1.97116766322468162e-01
1.59119173321774304e-01
1.20105436442010147e-01
8.04101935803079870e-02
4.03018788806725897e-02
0.00000000000000000e+00
0.00000000000000000e+00
3.90677711174761758e-02
7.79458355262686448e-02
1.16419557532465717e-01
1.54227296811326270e-01
1.91043829971748291e-01
2.26471475851685422e-01
2.60040461593441019e-01
2.91219192373990909e-01
3.19434072144085535e-01
3.44097461953370043e-01
3.64641376459986455e-01
3.80553737591511787e-01
3.91413546553858738e-01
3.96921289010438660e-01
3.96921289010438605e-01
3.91413546553858793e-01
3.80553737591511620e-01
3.64641376459986344e-01
3.44097461953371209e-01
3.19434072144086312e-01
2.91219192373990965e-01
2.60040461593440186e-01
2.26471475851684756e-01
1.91043829971746626e-01
1.54227296811325632e-01
1.16419557532465370e-01
7.79458355262681452e-02
3.90677711174759537e-02
0.00000000000000000e+00
0.00000000000000000e+00
3.72737459610239796e-02
7.43636382188342243e-02
1.11062343096852145e-01
1.47118266369232531e-01
1.82219970516185242e-01
2.15987870948433802e-01
2.47974656476148442e-01
2.77675051787771077e-01
3.04544580831574263e-01
3.28025990525228850e-01
3.47581067119021536e-01
3.62724844309444572e-01
3.73058774558422623e-01
3.78299394484933715e-01
3.78299394484934715e-01
3.73058774558423289e-01
3.62724844309444738e-01
3.47581067119022702e-01
3.28025990525230626e-01
3.04544580831577094e-01
2.77675051787771632e-01
2.47974656476147748e-01
2.15987870948433441e-01
1.82219970516184326e-01
1.47118266369232392e-01
1.11062343096851646e-01
7.43636382188338357e-02
3.72737459610237160e-02
0.00000000000000000e+00
0.00000000000000000e+00
3.49824575587623574e-02
6.97889644610439064e-02
1.04221895724013941e-01
1.38042783664573065e-01
1.70957971642519385e-01
2.02611014560633157e-01
2.32583157495778792e-01
2.60402454994054955e-01
2.85561205545595609e-01
3.07540452668514153e-01
3.25839450023584165e-01
3.40007314601593336e-01
3.49673701399283943e-01
3.54575299175090619e-01
3.54575299175091507e-01
3.49673701399285608e-01
3.40007314601594723e-01
3.25839450023586663e-01
3.07540452668516373e-01
2.85561205545596997e-01
2.60402454994055454e-01
2.32583157495778320e-01
2.02611014560633018e-01
1.70957971642519607e-01
1.38042783664573232e-01
1.04221895724013899e-01
6.97889644610436011e-02
3.49824575587622880e-02
0.00000000000000000e+00
0.00000000000000000e+00
3.22684320487353279e-02
6.43709030368297963e-02
9.61218500511038382e-02
1.27298788041293798e-01
1.57629376524186765e-01
1.86784617874009656e-01
2.14379388469155718e-01
2.39980803236564594e-01
2.63124107847521549e-01
2.83334957396649267e-01
3.00156169894087999e-01
3.13176437554044118e-01
3.22058129966480589e-01
3.26561296535240686e-01
3.26561296535241019e-01
3.22058129966482365e-01
3.13176437554045728e-01
3.00156169894090108e-01
2.83334957396652376e-01
2.63124107847523714e-01
2.39980803236565371e-01
2.14379388469156218e-01
1.86784617874010378e-01
1.57629376524188153e-01
1.27298788041294825e-01
9.61218500511040741e-02
6.43709030368297963e-02
3.22684320487353557e-02
0.00000000000000000e+00
0.00000000000000000e+00
2.92118618111893991e-02
5.82698373659571653e-02
8.70026853256043176e-02
1.15206489428587411e-01
1.42633248792577966e-01
1.68984927158671416e-01
1.93914022057608743e-01
2.17031089022446055e-01
2.37918938845462336e-01
2.56152485517528727e-01
2.71322542043148818e-01
2.83061328900430176e-01
2.91067155296627966e-01
2.95125713561413372e-01
2.95125713561414149e-01
2.91067155296628910e-01
2.83061328900431175e-01
2.71322542043150372e-01
2.56152485517530226e-01
2.37918938845463224e-01
2.17031089022446916e-01
1.93914022057609270e-01
1.68984927158672138e-01
1.42633248792579298e-01
1.15206489428588493e-01
8.70026853256048033e-02
5.82698373659572832e-02
2.92118618111893540e-02
0.00000000000000000e+00
0.00000000000000000e+00
2.58924394848342176e-02
5.16450988808517530e-02
7.71031774986154772e-02
1.02083609050351090e-01
1.26365225113337754e-01
1.49683671583026090e-01
1.71731994151148454e-01
1.92167262056824162e-01
2.10622975583994704e-01
2.26726361266424148e-01
2.40119071364452180e-01
2.50479346564859762e-01
2.57543441120110683e-01
2.61124096023588936e-01
2.61124096023589714e-01
2.57543441120111682e-01
2.50479346564859817e-01
2.40119071364452624e-01
2.26726361266424231e-01
2.10622975583994954e-01
1.92167262056824856e-01
1.71731994151149175e-01
1.49683671583026839e-01
1.26365225113338364e-01
1.02083609050351604e-01
7.71031774986156437e-02
5.16450988808518363e-02
2.58924394848342350e-02
0.00000000000000000e+00
0.00000000000000000e+00
2.23838943247402049e-02
4.46440326025007647e-02
6.66439868644586320e-02
8.82234955129849868e-02
1.09190198264968272e-01
1.29315405721568993e-01
1.48334674598175897e-01
1.65953493876670077e-01
1.81857858134362005e-01
1.95728962375097876e-01
2.07260758366533682e-01
2.16178729110901635e-01
2.22258022273043532e-01
2.25339074917945081e-01
2.25339074917945165e-01
2.22258022273044448e-01
2.16178729110902468e-01
2.07260758366533876e-01
1.95728962375098486e-01
1.81857858134362005e-01
1.65953493876670216e-01
1.48334674598175897e-01
1.29315405721568466e-01
1.09190198264968064e-01
8.82234955129849174e-02
6.66439868644587152e-02
4.46440326025006953e-02
2.23838943247402118e-02
0.00000000000000000e+00
0.00000000000000000e+00
1.87497466236647876e-02
3.73935066792408649e-02
5.58149290450640004e-02
7.38781785441037925e-02
9.14212026815080792e-02
1.08252318463981451e-01
1.24150748653054463e-01
1.38871352216605293e-01
1.52153358785309029e-01
1.63732473021549696e-01
1.73355311409622154e-01
1.80794822488502177e-01
1.85865167644315432e-01
1.88434535041006268e-01
1.88434535041006102e-01
1.85865167644316404e-01
1.80794822488503260e-01
1.73355311409622875e-01
1.63732473021550445e-01
1.52153358785309362e-01
1.38871352216605071e-01
1.24150748653053949e-01
1.08252318463980840e-01
9.14212026815075934e-02
7.38781785441034594e-02
5.58149290450638338e-02
3.73935066792408372e-02
1.87497466236648050e-02
0.00000000000000000e+00
0.00000000000000000e+00
1.50406047855285111e-02
2.99945136159193021e-02
4.47668970330301827e-02
5.92476427638135850e-02
7.33060914190367119e-02
8.67883923443583533e-02
9.95179726516159102e-02
1.11299307998276462e-01
1.21924840663479139e-01
1.31184541608152433e-01
1.38877297260242089e-01
1.44823058796610865e-01
1.48874557080014819e-01
1.50927384566264672e-01
1.50927384566264616e-01
1.48874557080015346e-01
1.44823058796611448e-01
1.38877297260243282e-01
1.31184541608153488e-01
1.21924840663479694e-01
1.11299307998276795e-01
9.95179726516157576e-02
8.67883923443577149e-02
7.33060914190362262e-02
5.92476427638133213e-02
4.47668970330299884e-02
2.99945136159191564e-02
1.50406047855285736e-02
0.00000000000000000e+00
0.00000000000000000e+00
1.12931306163258395e-02
2.25201117751091182e-02
3.36088008854260739e-02
4.44757988218172085e-02
5.50225833948738141e-02
6.51335828919086673e-02
7.46765524792865898e-02
8.35053902210174392e-02
9.14652756242919779e-02
9.83997562156705835e-02
1.04159175213782151e-01
1.08609655239509315e-01
1.11641754973015400e-01
1.13177915388016165e-01
1.13177915388016331e-01
1.11641754973015539e-01
1.08609655239509842e-01
1.04159175213782582e-01
9.83997562156710553e-02
9.14652756242924497e-02
8.35053902210176335e-02
7.46765524792864926e-02
6.51335828919083482e-02
5.50225833948736337e-02
4.44757988218170142e-02
3.36088008854258657e-02
2.25201117751091737e-02
1.12931306163258100e-02
0.00000000000000000e+00
0.00000000000000000e+00
7.53062025242840979e-03
1.50165991945691250e-02
2.24093564760992313e-02
2.96529155923230918e-02
3.66813689012636737e-02
4.34176225789668427e-02
4.97736597290474592e-02
5.56524104321233365e-02
6.09511501178424953e-02
6.55661782716819019e-02
6.93983768919976401e-02
7.23591314882053444e-02
7.43760335579510684e-02
7.53977838411050288e-02
7.53977838411049733e-02
7.43760335579510407e-02
7.23591314882054554e-02
6.93983768919977928e-02