<?xml version="1.0"?>
<VTKFile type="StructuredGrid">
<StructuredGrid WholeExtent="0 29 0 29 0 0 ">
<Piece Extent="0 29 0 29 0 0 ">
<Points>
<DataArray type="Float64" Name="coordinate" NumberOfComponents="3" format="ascii">
-2.00000000000000000e+00 -2.00000000000000000e+00 0 
-1.86206896551724133e+00 -2.00000000000000000e+00 0 
-1.72413793103448265e+00 -2.00000000000000000e+00 0 
-1.58620689655172420e+00 -2.00000000000000000e+00 0 
-1.44827586206896552e+00 -2.00000000000000000e+00 0 
-1.31034482758620685e+00 -2.00000000000000000e+00 0 
-1.17241379310344840e+00 -2.00000000000000000e+00 0 
-1.03448275862068950e+00 -2.00000000000000000e+00 0 
-8.96551724137931050e-01 -2.00000000000000000e+00 0 
-7.58620689655172376e-01 -2.00000000000000000e+00 0 
-6.20689655172413701e-01 -2.00000000000000000e+00 0 
-4.82758620689655249e-01 -2.00000000000000000e+00 0 
-3.44827586206896575e-01 -2.00000000000000000e+00 0 
-2.06896551724137900e-01 -2.00000000000000000e+00 0 
-6.89655172413792261e-02 -2.00000000000000000e+00 0 
6.89655172413794482e-02 -2.00000000000000000e+00 0 
2.06896551724137900e-01 -2.00000000000000000e+00 0 
3.44827586206896353e-01 -2.00000000000000000e+00 0 
4.82758620689655249e-01 -2.00000000000000000e+00 0 
6.20689655172413701e-01 -2.00000000000000000e+00 0 
7.58620689655172598e-01 -2.00000000000000000e+00 0 
8.96551724137931050e-01 -2.00000000000000000e+00 0 
1.03448275862068950e+00 -2.00000000000000000e+00 0 
1.17241379310344840e+00 -2.00000000000000000e+00 0 
1.31034482758620685e+00 -2.00000000000000000e+00 0 
1.44827586206896530e+00 -2.00000000000000000e+00 0 
1.58620689655172420e+00 -2.00000000000000000e+00 0 
1.72413793103448265e+00 -2.00000000000000000e+00 0 
1.86206896551724155e+00 -2.00000000000000000e+00 0 
2.00000000000000000e+00 -2.00000000000000000e+00 0 
-2.00000000000000000e+00 -1.86206896551724133e+00 0 
-1.86206896551724133e+00 -1.86206896551724133e+00 0 
-1.72413793103448265e+00 -1.86206896551724133e+00 0 
-1.58620689655172420e+00 -1.86206896551724133e+00 0 
-1.44827586206896552e+00 -1.86206896551724133e+00 0 
-1.31034482758620685e+00 -1.86206896551724133e+00 0 
-1.17241379310344840e+00 -1.86206896551724133e+00 0 
-1.03448275862068950e+00 -1.86206896551724133e+00 0 
-8.96551724137931050e-01 -1.86206896551724133e+00 0 
-7.58620689655172376e-01 -1.86206896551724133e+00 0 
-6.20689655172413701e-01 -1.86206896551724133e+00 0 
-4.82758620689655249e-01 -1.86206896551724133e+00 0 
-3.44827586206896575e-01 -1.86206896551724133e+00 0 
-2.06896551724137900e-01 -1.86206896551724133e+00 0 
-6.89655172413792261e-02 -1.86206896551724133e+00 0 
6.89655172413794482e-02 -1.86206896551724133e+00 0 
2.06896551724137900e-01 -1.86206896551724133e+00 0 
3.44827586206896353e-01 -1.86206896551724133e+00 0 
4.82758620689655249e-01 -1.86206896551724133e+00 0 
6.20689655172413701e-01 -1.86206896551724133e+00 0 
7.58620689655172598e-01 -1.86206896551724133e+00 0 
8.96551724137931050e-01 -1.86206896551724133e+00 0 
1.03448275862068950e+00 -1.86206896551724133e+00 0 
1.17241379310344840e+00 -1.86206896551724133e+00 0 
1.31034482758620685e+00 -1.86206896551724133e+00 0 
1.44827586206896530e+00 -1.86206896551724133e+00 0 
1.58620689655172420e+00 -1.86206896551724133e+00 0 
1.72413793103448265e+00 -1.86206896551724133e+00 0 
1.86206896551724155e+00 -1.86206896551724133e+00 0 
2.00000000000000000e+00 -1.86206896551724133e+00 0 
-2.00000000000000000e+00 -1.72413793103448265e+00 0 
-1.86206896551724133e+00 -1.72413793103448265e+00 0 
-1.72413793103448265e+00 -1.72413793103448265e+00 0 
-1.58620689655172420e+00 -1.72413793103448265e+00 0 
-1.44827586206896552e+00 -1.72413793103448265e+00 0 
-1.31034482758620685e+00 -1.72413793103448265e+00 0 
-1.17241379310344840e+00 -1.72413793103448265e+00 0 
-1.03448275862068950e+00 -1.72413793103448265e+00 0 
-8.96551724137931050e-01 -1.72413793103448265e+00 0 
-7.58620689655172376e-01 -1.72413793103448265e+00 0 
-6.20689655172413701e-01 -1.72413793103448265e+00 0 
-4.82758620689655249e-01 -1.72413793103448265e+00 0 
-3.44827586206896575e-01 -1.72413793103448265e+00 0 
-2.06896551724137900e-01 -1.72413793103448265e+00 0 
-6.89655172413792261e-02 -1.72413793103448265e+00 0 
6.89655172413794482e-02 -1.72413793103448265e+00 0 
2.06896551724137900e-01 -1.72413793103448265e+00 0 
3.44827586206896353e-01 -1.72413793103448265e+00 0 
4.82758620689655249e-01 -1.72413793103448265e+00 0 
6.20689655172413701e-01 -1.72413793103448265e+00 0 
7.58620689655172598e-01 -1.72413793103448265e+00 0 
8.96551724137931050e-01 -1.72413793103448265e+00 0 
1.03448275862068950e+00 -1.72413793103448265e+00 0 
1.17241379310344840e+00 -1.72413793103448265e+00 0 
1.31034482758620685e+00 -1.72413793103448265e+00 0 
1.44827586206896530e+00 -1.72413793103448265e+00 0 
1.58620689655172420e+00 -1.72413793103448265e+00 0 
1.72413793103448265e+00 -1.72413793103448265e+00 0 
1.86206896551724155e+00 -1.72413793103448265e+00 0 
2.00000000000000000e+00 -1.72413793103448265e+00 0 
-2.00000000000000000e+00 -1.58620689655172420e+00 0 
-1.86206896551724133e+00 -1.58620689655172420e+00 0 
-1.72413793103448265e+00 -1.58620689655172420e+00 0 
-1.58620689655172420e+00 -1.58620689655172420e+00 0 
-1.44827586206896552e+00 -1.58620689655172420e+00 0 
-1.31034482758620685e+00 -1.58620689655172420e+00 0 
-1.17241379310344840e+00 -1.58620689655172420e+00 0 
-1.03448275862068950e+00 -1.58620689655172420e+00 0 
-8.96551724137931050e-01 -1.58620689655172420e+00 0 
-7.58620689655172376e-01 -1.58620689655172420e+00 0 
-6.20689655172413701e-01 -1.58620689655172420e+00 0 
-4.82758620689655249e-01 -1.58620689655172420e+00 0 
-3.44827586206896575e-01 -1.58620689655172420e+00 0 
-2.06896551724137900e-01 -1.58620689655172420e+00 0 
-6.89655172413792261e-02 -1.58620689655172420e+00 0 
6.89655172413794482e-02 -1.58620689655172420e+00 0 
2.06896551724137900e-01 -1.58620689655172420e+00 0 
3.44827586206896353e-01 -1.58620689655172420e+00 0 
4.82758620689655249e-01 -1.58620689655172420e+00 0 
6.20689655172413701e-01 -1.58620689655172420e+00 0 
7.58620689655172598e-01 -1.58620689655172420e+00 0 
8.96551724137931050e-01 -1.58620689655172420e+00 0 
1.03448275862068950e+00 -1.58620689655172420e+00 0 
1.17241379310344840e+00 -1.58620689655172420e+00 0 
1.31034482758620685e+00 -1.58620689655172420e+00 0 
1.44827586206896530e+00 -1.58620689655172420e+00 0 
1.58620689655172420e+00 -1.58620689655172420e+00 0 
1.72413793103448265e+00 -1.58620689655172420e+00 0 
1.86206896551724155e+00 -1.58620689655172420e+00 0 
2.00000000000000000e+00 -1.58620689655172420e+00 0 
-2.00000000000000000e+00 -1.44827586206896552e+00 0 
-1.86206896551724133e+00 -1.44827586206896552e+00 0 
-1.72413793103448265e+00 -1.44827586206896552e+00 0 
-1.58620689655172420e+00 -1.44827586206896552e+00 0 
-1.44827586206896552e+00 -1.44827586206896552e+00 0 
-1.31034482758620685e+00 -1.44827586206896552e+00 0 
-1.17241379310344840e+00 -1.44827586206896552e+00 0 
-1.03448275862068950e+00 -1.44827586206896552e+00 0 
-8.96551724137931050e-01 -1.44827586206896552e+00 0 
-7.58620689655172376e-01 -1.44827586206896552e+00 0 
-6.20689655172413701e-01 -1.44827586206896552e+00 0 
-4.82758620689655249e-01 -1.44827586206896552e+00 0 
-3.44827586206896575e-01 -1.44827586206896552e+00 0 
-2.06896551724137900e-01 -1.44827586206896552e+00 0 
-6.89655172413792261e-02 -1.44827586206896552e+00 0 
6.89655172413794482e-02 -1.44827586206896552e+00 0 
2.06896551724137900e-01 -1.44827586206896552e+00 0 
3.44827586206896353e-01 -1.44827586206896552e+00 0 
4.82758620689655249e-01 -1.44827586206896552e+00 0 
6.20689655172413701e-01 -1.44827586206896552e+00 0 
7.58620689655172598e-01 -1.44827586206896552e+00 0 
8.96551724137931050e-01 -1.44827586206896552e+00 0 
1.03448275862068950e+00 -1.44827586206896552e+00 0 
1.17241379310344840e+00 -1.44827586206896552e+00 0 
1.31034482758620685e+00 -1.44827586206896552e+00 0 
1.44827586206896530e+00 -1.44827586206896552e+00 0 
1.58620689655172420e+00 -1.44827586206896552e+00 0 
1.72413793103448265e+00 -1.44827586206896552e+00 0 
1.86206896551724155e+00 -1.44827586206896552e+00 0 
2.00000000000000000e+00 -1.44827586206896552e+00 0 
-2.00000000000000000e+00 -1.31034482758620685e+00 0 
-1.86206896551724133e+00 -1.31034482758620685e+00 0 
-1.72413793103448265e+00 -1.31034482758620685e+00 0 
-1.58620689655172420e+00 -1.31034482758620685e+00 0 
-1.44827586206896552e+00 -1.31034482758620685e+00 0 
-1.31034482758620685e+00 -1.31034482758620685e+00 0 
-1.17241379310344840e+00 -1.31034482758620685e+00 0 
-1.03448275862068950e+00 -1.31034482758620685e+00 0 
-8.96551724137931050e-01 -1.31034482758620685e+00 0 
-7.58620689655172376e-01 -1.31034482758620685e+00 0 
-6.20689655172413701e-01 -1.31034482758620685e+00 0 
-4.82758620689655249e-01 -1.31034482758620685e+00 0 
-3.44827586206896575e-01 -1.31034482758620685e+00 0 
-2.06896551724137900e-01 -1.31034482758620685e+00 0 
-6.89655172413792261e-02 -1.31034482758620685e+00 0 
6.89655172413794482e-02 -1.31034482758620685e+00 0 
2.06896551724137900e-01 -1.31034482758620685e+00 0 
3.44827586206896353e-01 -1.31034482758620685e+00 0 
4.82758620689655249e-01 -1.31034482758620685e+00 0 
6.20689655172413701e-01 -1.31034482758620685e+00 0 
7.58620689655172598e-01 -1.31034482758620685e+00 0 
8.96551724137931050e-01 -1.31034482758620685e+00 0 
1.03448275862068950e+00 -1.31034482758620685e+00 0 
1.17241379310344840e+00 -1.31034482758620685e+00 0 
1.31034482758620685e+00 -1.31034482758620685e+00 0 
1.44827586206896530e+00 -1.31034482758620685e+00 0 
1.58620689655172420e+00 -1.31034482758620685e+00 0 
1.72413793103448265e+00 -1.31034482758620685e+00 0 
1.86206896551724155e+00 -1.31034482758620685e+00 0 
2.00000000000000000e+00 -1.31034482758620685e+00 0 
-2.00000000000000000e+00 -1.17241379310344840e+00 0 
-1.86206896551724133e+00 -1.17241379310344840e+00 0 
-1.72413793103448265e+00 -1.17241379310344840e+00 0 
-1.58620689655172420e+00 -1.17241379310344840e+00 0 
-1.44827586206896552e+00 -1.17241379310344840e+00 0 
-1.31034482758620685e+00 -1.17241379310344840e+00 0 
[...]
<PointData>
<DataArray type="Float64" Name="gaussian_hill" NumberOfComponents="1" format="ascii">
0.00000000000000000e+00
0.00000000000000000e+00
0.00000000000000000e+00
0.00000000000000000e+00
0.00000000000000000e+00
0.00000000000000000e+00
0.00000000000000000e+00
0.00000000000000000e+00
0.00000000000000000e+00
0.00000000000000000e+00
0.00000000000000000e+00
0.00000000000000000e+00
0.00000000000000000e+00
0.00000000000000000e+00
0.00000000000000000e+00
0.00000000000000000e+00
0.00000000000000000e+00
0.00000000000000000e+00
0.00000000000000000e+00
0.00000000000000000e+00
0.00000000000000000e+00
0.00000000000000000e+00
0.00000000000000000e+00
0.00000000000000000e+00
0.00000000000000000e+00
0.00000000000000000e+00
0.00000000000000000e+00
0.00000000000000000e+00
0.00000000000000000e+00
0.00000000000000000e+00
0.00000000000000000e+00
2.99954080331150735e-03
6.03319653228253164e-03
9.12858288836379886e-03
1.23005129891382969e-02
1.55455382826321029e-02
1.88380219870845252e-02
2.21283560075686489e-02
2.53437681467052374e-02
2.83919225823850777e-02
3.11672002273871013e-02
3.35591828353989513e-02
3.54625066099913053e-02
3.67869663472335448e-02
3.74666093644049139e-02
3.74666093644049139e-02
3.67869663472335448e-02
3.54625066099912498e-02
3.35591828353988611e-02
3.11672002273869798e-02
2.83919225823849528e-02
2.53437681467052686e-02
2.21283560075685899e-02
1.88380219870845286e-02
1.55455382826320924e-02
1.23005129891383021e-02
9.12858288836380580e-03
6.03319653228255592e-03
2.99954080331151342e-03
0.00000000000000000e+00
0.00000000000000000e+00
6.13492823646283499e-03
1.23425674513318664e-02
1.86821846509932048e-02
2.51864365995124913e-02
3.18498963422225584e-02
3.86207462978914520e-02
4.53969342104632648e-02
5.20277438421448066e-02
5.83212266521874884e-02
6.40572801395253855e-02
6.90053934170803684e-02
7.29453181170531678e-02
7.56883105785226135e-02
7.70962804546902886e-02
7.70962804546902192e-02
7.56883105785224886e-02
7.29453181170528625e-02
6.90053934170801325e-02
6.40572801395251357e-02
5.83212266521873704e-02
5.20277438421447788e-02
4.53969342104632995e-02
3.86207462978913688e-02
3.18498963422225306e-02
2.51864365995124878e-02
1.86821846509932221e-02
1.23425674513319029e-02
6.13492823646284973e-03
0.00000000000000000e+00
0.00000000000000000e+00
9.53201173483927272e-03
1.91842100778853754e-02
2.90555497086800729e-02
3.92026113586380065e-02
4.96210045456758342e-02
6.02317725907403623e-02
7.08749272800180408e-02
8.13116846505284319e-02
9.12361727472220108e-02
1.00296323694579081e-01
1.08122416358268178e-01
1.14360475958051253e-01
1.18706710721047493e-01
1.20938629849339938e-01
1.20938629849339799e-01
1.18706710721047104e-01
1.14360475958051114e-01
1.08122416358267887e-01
1.00296323694578832e-01
9.12361727472217887e-02
8.13116846505283070e-02
7.08749272800179020e-02
6.02317725907402998e-02
4.96210045456758411e-02
3.92026113586381314e-02
2.90555497086801354e-02
1.91842100778854621e-02
9.53201173483930742e-03
0.00000000000000000e+00
0.00000000000000000e+00
1.32955164638851771e-02
2.67717145797711602e-02
4.05791111939880905e-02
5.48073003730728744e-02
6.94575839651012661e-02
8.44227376141174629e-02
9.94770803033097895e-02
1.14279203994944650e-01
1.28388581373825444e-01
1.41295737984454217e-01
1.52463832559389639e-01
1.61377592156328409e-01
1.67593976324639765e-01
1.70788097111648274e-01
1.70788097111648079e-01
1.67593976324639821e-01
1.61377592156327715e-01
1.52463832559389306e-01
1.41295737984453884e-01
1.28388581373825084e-01
1.14279203994943943e-01
9.94770803033094564e-02
8.44227376141172964e-02
6.94575839651013355e-02
5.48073003730729993e-02
4.05791111939882709e-02
2.67717145797712434e-02
1.32955164638852343e-02
0.00000000000000000e+00
0.00000000000000000e+00
1.74961592748338370e-02
3.52500533097455868e-02
5.34790218827854713e-02
7.23175297848409337e-02
9.17788898690991561e-02
1.11726638349443699e-01
1.31860029150354829e-01
1.51716994664183813e-01
1.70696399517197783e-01
1.88099319376586971e-01
2.03186490624852917e-01
2.15246358729532100e-01
2.23665858421878139e-01
2.27994781951979170e-01
2.27994781951979086e-01
2.23665858421877861e-01
2.15246358729530962e-01
2.03186490624851834e-01
1.88099319376585861e-01
1.70696399517196701e-01
1.51716994664182897e-01
1.31860029150354080e-01
1.11726638349443283e-01
9.17788898690990451e-02
7.23175297848412391e-02
5.34790218827858044e-02
3.52500533097458227e-02
1.74961592748339410e-02
0.00000000000000000e+00
0.00000000000000000e+00
2.21562424674494989e-02
4.46662289203471272e-02
6.78318268516349548e-02
9.18463758448910539e-02
1.16743000197568822e-01
1.42355541296202037e-01
1.68298155029667967e-01
1.93968139989771166e-01
2.18574624439203336e-01
2.41192988864364716e-01
2.60841401679630103e-01
2.76572088430211416e-01
2.87566724205313318e-01
2.93223486790834598e-01
2.93223486790834320e-01
2.87566724205312318e-01
2.76572088430209417e-01
2.60841401679627771e-01
2.41192988864362690e-01
2.18574624439201948e-01
1.93968139989770000e-01
1.68298155029667329e-01
1.42355541296201510e-01
1.16743000197568988e-01
9.18463758448914425e-02
6.78318268516353573e-02
4.46662289203473908e-02
2.21562424674496584e-02
0.00000000000000000e+00
0.00000000000000000e+00
2.72351984565111851e-02
5.49396638222627784e-02
8.35183272547770222e-02
1.13238380564666952e-01
1.44161525582997302e-01
1.76092293714250503e-01
2.08550323017969302e-01
2.40772599894034101e-01
2.71749303501340078e-01
3.00293398409670342e-01
3.25139533399578351e-01
3.45062772438316900e-01
3.59003282221661724e-01
3.66180508928854176e-01
3.66180508928853177e-01
3.59003282221659725e-01
3.45062772438314957e-01
3.25139533399576075e-01
3.00293398409668233e-01
2.71749303501338080e-01
2.40772599894033129e-01
2.08550323017968497e-01
1.76092293714250031e-01
1.44161525582997441e-01
1.13238380564667368e-01
8.35183272547772998e-02
5.49396638222630282e-02
2.72351984565112580e-02
0.00000000000000000e+00
0.00000000000000000e+00
3.26179392556669168e-02
6.58381624192000553e-02
1.00185674376576661e-01
1.36015654557226806e-01
1.73427174817094187e-01
2.12196895995773099e-01
2.51742674766913976e-01
2.91124714147170838e-01
3.29089105948220384e-01
3.64154317717378606e-01
3.94735342547007817e-01
4.19293699719134050e-01
4.36495672437987758e-01
4.45357673395099796e-01
4.45357673395098630e-01
4.36495672437985316e-01
4.19293699719131163e-01
3.94735342547004875e-01
3.64154317717375720e-01
3.29089105948217941e-01
2.91124714147168617e-01
2.51742674766912200e-01
2.12196895995771712e-01
1.73427174817093882e-01
1.36015654557227028e-01
1.00185674376576939e-01
6.58381624192002080e-02
3.26179392556670000e-02
0.00000000000000000e+00
0.00000000000000000e+00
3.81099600770313310e-02
7.69675542110248023e-02
1.17230369770453494e-01
1.59352485031271390e-01
2.03477813175652472e-01
2.49357684583791123e-01
2.96304739998710820e-01
3.43192505417029836e-01
3.88506864976403965e-01
4.30450524530833101e-01
4.67094365330083361e-01
4.96561384717772669e-01
5.17221534612098632e-01
5.27871232097493315e-01
5.27871232097492982e-01
5.17221534612095857e-01
4.96561384717767840e-01
4.67094365330078976e-01
4.30450524530828493e-01
3.88506864976399413e-01
3.43192505417026394e-01
2.96304739998707545e-01
2.49357684583788680e-01
2.03477813175651223e-01
1.59352485031271057e-01
1.17230369770453466e-01
7.69675542110248023e-02
3.81099600770312477e-02
0.00000000000000000e+00
0.00000000000000000e+00
4.34433700588580385e-02
8.77836204996479685e-02
1.33815723229007338e-01
1.82097697018664934e-01
2.32822856253317501e-01
2.85720700847272635e-01
3.40000619003299198e-01
3.94349516489670038e-01
4.46991034340588123e-01
4.95808088224826027e-01
5.38521874203907069e-01
5.72910531883711771e-01
5.97041591099106705e-01
6.09486673423521141e-01
6.09486673423520253e-01
5.97041591099104707e-01
5.72910531883708662e-01
5.38521874203902629e-01
4.95808088224819865e-01
4.46991034340580906e-01
3.94349516489665985e-01
3.40000619003295979e-01
2.85720700847268916e-01
2.32822856253315280e-01
1.82097697018664018e-01
1.33815723229006672e-01
8.77836204996479269e-02
4.34433700588580662e-02
0.00000000000000000e+00
0.00000000000000000e+00
4.82968240505707788e-02
9.76324767212946171e-02
1.48933611750584782e-01
2.02858980758210461e-01
2.59651437960122022e-01
3.19022822725143040e-01
3.80087796659649313e-01
4.41359369500362142e-01
5.00815183727973290e-01
5.56036969751835697e-01
6.04415666642268423e-01
6.43403054534027574e-01
6.70780040007198153e-01
6.84904976359082429e-01
6.84904976359083206e-01
6.70780040007197154e-01
6.43403054534027241e-01
6.04415666642266980e-01
5.56036969751832255e-01
5.00815183727968738e-01
4.41359369500358867e-01
3.80087796659645372e-01
3.19022822725139266e-01
2.59651437960119302e-01
2.02858980758209184e-01
1.48933611750584005e-01
9.76324767212943534e-02
4.82968240505706123e-02
0.00000000000000000e+00
0.00000000000000000e+00
5.23295143756437320e-02
1.05819817436044669e-01
1.61511408600081480e-01
2.20150855094822934e-01
2.82025259008964635e-01
3.46833289908425935e-01
4.13610426754539739e-01
4.80722508259639303e-01
5.45937894200932305e-01
6.06581280510391174e-01
6.59761151041470817e-01
7.02649722291248224e-01
7.32782092881176017e-01
7.48333572654678369e-01
7.48333572654682033e-01
7.32782092881177127e-01
7.02649722291249890e-01
6.59761151041472926e-01
6.06581280510390175e-01
5.45937894200930418e-01
4.80722508259635584e-01
4.13610426754535132e-01
3.46833289908421771e-01
2.82025259008961249e-01
2.20150855094821518e-01
1.61511408600080897e-01
1.05819817436044350e-01
5.23295143756436695e-02
0.00000000000000000e+00
0.00000000000000000e+00
5.52254215319729971e-02
1.11701292489959012e-01
1.70552190851542551e-01
2.32589915746346326e-01
2.98134976237850458e-01
3.66877387824486589e-01
4.37795532120804076e-01
5.09148166607836572e-01
5.78550805501190313e-01
6.43140004261876230e-01
6.99817178772512927e-01
7.45549365333300962e-01
7.77691108004894271e-01
7.94283188714466348e-01
7.94283188714466681e-01
7.77691108004895049e-01
7.45549365333303848e-01
6.99817178772516924e-01
6.43140004261879228e-01
5.78550805501189869e-01
5.09148166607834796e-01
4.37795532120799302e-01
3.66877387824483037e-01
2.98134976237847904e-01
2.32589915746345105e-01
1.70552190851541718e-01
1.11701292489958595e-01
5.52254215319729347e-02
0.00000000000000000e+00
0.00000000000000000e+00
5.67401151052371808e-02
1.14778233288039558e-01
1.75283650298647065e-01
2.39102978535030514e-01
3.06574723362033619e-01
3.77384632729675928e-01
4.50481151505717548e-01
5.24066586055510264e-01
5.95675691294006771e-01
6.62345480840149436e-01
7.20867712570824160e-01
7.68100690616193349e-01
8.01303229496197367e-01
8.18444760559567053e-01
8.18444760559566831e-01
8.01303229496197256e-01
7.68100690616192683e-01
7.20867712570828045e-01
6.62345480840152878e-01
5.95675691294009435e-01
5.24066586055509376e-01
4.50481151505714827e-01
3.77384632729672542e-01
3.06574723362030177e-01
2.39102978535028765e-01
1.75283650298645843e-01
1.14778233288039141e-01
5.67401151052370489e-02
0.00000000000000000e+00
0.00000000000000000e+00
5.67401151052373889e-02
1.14778233288039627e-01
1.75283650298646815e-01
2.39102978535030153e-01
3.06574723362033064e-01
3.77384632729675429e-01
4.50481151505717936e-01
5.24066586055511374e-01
5.95675691294006548e-01
6.62345480840149214e-01
7.20867712570824715e-01
7.68100690616191017e-01
8.01303229496197700e-01
8.18444760559565831e-01
8.18444760559567719e-01
8.01303229496199032e-01
7.68100690616197568e-01
7.20867712570829600e-01
6.62345480840155432e-01
5.95675691294010878e-01
5.24066586055511374e-01
4.50481151505714605e-01
3.77384632729672709e-01
3.06574723362030233e-01
2.39102978535028488e-01
1.75283650298646038e-01
1.14778233288039266e-01
5.67401151052370073e-02
0.00000000000000000e+00
0.00000000000000000e+00
5.52254215319730596e-02
1.11701292489958665e-01
1.70552190851541885e-01
2.32589915746346160e-01
2.98134976237849791e-01
3.66877387824485590e-01
4.37795532120803244e-01
5.09148166607837682e-01
5.78550805501189314e-01
6.43140004261874454e-01
6.99817178772512927e-01
7.45549365333299074e-01
7.77691108004892051e-01
7.94283188714467570e-01
7.94283188714468347e-01
7.77691108004899712e-01
7.45549365333306846e-01
6.99817178772521697e-01
6.43140004261882003e-01
5.78550805501193088e-01
5.09148166607837904e-01
4.37795532120801523e-01
3.66877387824482204e-01
2.98134976237846905e-01
2.32589915746344078e-01
1.70552190851541191e-01
1.11701292489958387e-01
5.52254215319729208e-02
0.00000000000000000e+00
0.00000000000000000e+00
5.23295143756437042e-02
1.05819817436044433e-01
1.61511408600080925e-01
2.20150855094821796e-01
2.82025259008963136e-01
3.46833289908423437e-01
4.13610426754537686e-01
4.80722508259635972e-01
5.45937894200929086e-01
6.06581280510387733e-01
6.59761151041468263e-01
7.02649722291246226e-01
7.32782092881174796e-01
7.48333572654681145e-01
7.48333572654681589e-01
7.32782092881178571e-01
7.02649722291253664e-01
6.59761151041477256e-01
6.06581280510394838e-01
5.45937894200935969e-01
4.80722508259639081e-01
4.13610426754537519e-01
3.46833289908421327e-01
2.82025259008960028e-01
2.20150855094820130e-01
1.61511408600080397e-01
1.05819817436044350e-01
5.23295143756435932e-02
0.00000000000000000e+00
0.00000000000000000e+00
4.82968240505706470e-02
9.76324767212942146e-02
1.48933611750583728e-01
2.02858980758208768e-01
2.59651437960119247e-01
3.19022822725139932e-01
3.80087796659645927e-01
4.41359369500359255e-01
5.00815183727968294e-01
5.56036969751829813e-01
6.04415666642262761e-01
6.43403054534022467e-01
6.70780040007193379e-01
6.84904976359080431e-01
6.84904976359081985e-01
6.70780040007194489e-01
6.43403054534027796e-01
6.04415666642269644e-01
5.56036969751836363e-01
5.00815183727973179e-01
4.41359369500361809e-01
3.80087796659647204e-01
3.19022822725139543e-01
2.59651437960118803e-01
2.02858980758208102e-01
1.48933611750583561e-01
9.76324767212942285e-02
4.82968240505706817e-02
0.00000000000000000e+00
0.00000000000000000e+00
4.34433700588579622e-02
8.77836204996476216e-02
1.33815723229006173e-01
1.82097697018663074e-01
2.32822856253314586e-01
2.85720700847268583e-01
3.40000619003295090e-01
3.94349516489665153e-01
4.46991034340581350e-01
4.95808088224817811e-01
5.38521874203897855e-01
5.72910531883703444e-01
5.97041591099100599e-01
6.09486673423516256e-01
6.09486673423515923e-01
5.97041591099100710e-01
5.72910531883707219e-01
5.38521874203905626e-01
4.95808088224823862e-01
4.46991034340586568e-01
3.94349516489669039e-01
3.40000619003297644e-01
2.85720700847270637e-01
2.32822856253315530e-01
1.82097697018663462e-01
1.33815723229006339e-01
8.77836204996476910e-02
4.34433700588580177e-02
0.00000000000000000e+00
0.00000000000000000e+00
3.81099600770311089e-02
7.69675542110244276e-02
1.17230369770452827e-01
1.59352485031270197e-01
2.03477813175650502e-01
2.49357684583788486e-01
2.96304739998707600e-01
3.43192505417025284e-01
3.88506864976399136e-01
4.30450524530825940e-01
4.67094365330077255e-01
4.96561384717765397e-01
5.17221534612091416e-01
5.27871232097487209e-01
5.27871232097487431e-01
5.17221534612092748e-01
4.96561384717768228e-01
4.67094365330081362e-01
4.30450524530832490e-01
3.88506864976403465e-01
3.43192505417029448e-01
2.96304739998709932e-01
2.49357684583789763e-01
2.03477813175652000e-01
1.59352485031270807e-01
1.17230369770453188e-01
7.69675542110246219e-02
3.81099600770313379e-02
0.00000000000000000e+00
0.00000000000000000e+00
3.26179392556667988e-02
6.58381624191997777e-02
1.00185674376576064e-01
1.36015654557225807e-01
1.73427174817092522e-01
2.12196895995770907e-01
2.51742674766911423e-01
2.91124714147168451e-01
3.29089105948217164e-01
3.64154317717373999e-01
3.94735342547002765e-01
4.19293699719128443e-01
4.36495672437981264e-01
4.45357673395093578e-01
4.45357673395094578e-01
4.36495672437982596e-01
4.19293699719130997e-01
3.94735342547006318e-01
3.64154317717378495e-01
3.29089105948220662e-01
2.91124714147171115e-01
2.51742674766913532e-01
2.12196895995772489e-01
1.73427174817093965e-01
1.36015654557226917e-01
1.00185674376576703e-01
6.58381624191999720e-02
3.26179392556669515e-02
0.00000000000000000e+00
0.00000000000000000e+00
2.72351984565110949e-02
5.49396638222625355e-02
8.35183272547763422e-02
1.13238380564666147e-01
1.44161525582996275e-01
1.76092293714248865e-01
2.08550323017967915e-01
2.40772599894032296e-01
2.71749303501337580e-01
3.00293398409667012e-01
3.25139533399574410e-01
3.45062772438312571e-01
3.59003282221657227e-01
3.66180508928850124e-01
3.66180508928851012e-01
3.59003282221658560e-01
3.45062772438314902e-01
3.25139533399577185e-01
3.00293398409669843e-01
2.71749303501339412e-01
2.40772599894033573e-01
2.08550323017969497e-01
1.76092293714250336e-01
1.44161525582997663e-01
1.13238380564667104e-01
8.35183272547771055e-02
5.49396638222629102e-02
2.72351984565112407e-02
0.00000000000000000e+00
0.00000000000000000e+00
2.21562424674494295e-02
4.46662289203469745e-02
6.78318268516344830e-02
9.18463758448904433e-02
1.16743000197568086e-01
1.42355541296201177e-01
1.68298155029667051e-01
1.93968139989769750e-01
2.18574624439201587e-01
2.41192988864362162e-01
2.60841401679626494e-01
2.76572088430207863e-01
2.87566724205310709e-01
2.93223486790832932e-01
2.93223486790832766e-01
2.87566724205311763e-01
2.76572088430209695e-01
2.60841401679628437e-01
2.41192988864364050e-01
2.18574624439203002e-01
1.93968139989771082e-01
1.68298155029667995e-01
1.42355541296202093e-01
1.16743000197569266e-01
9.18463758448912204e-02
6.78318268516350936e-02
4.46662289203472174e-02
2.21562424674495440e-02
0.00000000000000000e+00
0.00000000000000000e+00
1.74961592748338196e-02
3.52500533097454896e-02
5.34790218827852840e-02
7.23175297848405313e-02
9.17788898690984345e-02
1.11726638349442936e-01
1.31860029150354330e-01
1.51716994664183008e-01
1.70696399517196701e-01
1.88099319376585250e-01
2.03186490624850780e-01
2.15246358729529519e-01
2.23665858421876029e-01
2.27994781951977837e-01
2.27994781951978226e-01
2.23665858421876862e-01
2.15246358729531184e-01
2.03186490624852528e-01
1.88099319376586860e-01
1.70696399517197728e-01
1.51716994664183868e-01
1.31860029150354829e-01
1.11726638349443644e-01
9.17788898690989619e-02
7.23175297848409615e-02
5.34790218827855268e-02
3.52500533097455798e-02
1.74961592748338647e-02
0.00000000000000000e+00
0.00000000000000000e+00
1.32955164638851649e-02
2.67717145797711012e-02
4.05791111939879309e-02
5.48073003730726871e-02
6.94575839651008498e-02
8.44227376141170882e-02
9.94770803033095535e-02
1.14279203994944234e-01
1.28388581373825222e-01
1.41295737984453357e-01
1.52463832559388501e-01
1.61377592156326882e-01
1.67593976324638683e-01
1.70788097111647302e-01
1.70788097111647302e-01
1.67593976324639099e-01
1.61377592156327798e-01
1.52463832559389750e-01
1.41295737984454134e-01
1.28388581373825555e-01
1.14279203994944720e-01
9.94770803033097617e-02
8.44227376141174213e-02
6.94575839651011551e-02
5.48073003730729300e-02
4.05791111939880420e-02
2.67717145797711532e-02
1.32955164638851615e-02
0.00000000000000000e+00
0.00000000000000000e+00
9.53201173483926058e-03
1.91842100778853476e-02
2.90555497086799654e-02
3.92026113586378400e-02
4.96210045456755566e-02
6.02317725907400500e-02
7.08749272800177632e-02
8.13116846505281821e-02
9.12361727472216638e-02
1.00296323694578554e-01
1.08122416358267387e-01
1.14360475958050434e-01
1.18706710721046493e-01
1.20938629849339216e-01
1.20938629849339244e-01
1.18706710721046799e-01
1.14360475958050933e-01
1.08122416358267887e-01
1.00296323694579012e-01
9.12361727472219830e-02
8.13116846505283347e-02
7.08749272800181102e-02
6.02317725907402651e-02
4.96210045456758689e-02
3.92026113586380134e-02
2.90555497086800799e-02
1.91842100778853684e-02
9.53201173483928833e-03
0.00000000000000000e+00
0.00000000000000000e+00
6.13492823646281937e-03
1.23425674513318439e-02
1.86821846509931319e-02
2.51864365995123907e-02
3.18498963422224057e-02
3.86207462978913132e-02
4.53969342104631537e-02
5.20277438421446609e-02
5.83212266521873635e-02
6.40572801395250385e-02
6.90053934170797995e-02
7.29453181170526266e-02
7.56883105785222388e-02
7.70962804546900110e-02
7.70962804546900665e-02
7.56883105785224330e-02
7.29453181170528903e-02
6.90053934170801880e-02