<?xml version="1.0"?>
<VTKFile type="StructuredGrid">
<StructuredGrid WholeExtent="0 29 0 29 0 0 ">
<Piece Extent="0 29 0 29 0 0 ">
<Points>
<DataArray type="Float64" Name="coordinate" NumberOfComponents="3" format="ascii">
-2.00000000000000000e+00 -2.00000000000000000e+00 0 
-1.86206896551724133e+00 -2.00000000000000000e+00 0 
-1.72413793103448265e+00 -2.00000000000000000e+00 0 
-1.58620689655172420e+00 -2.00000000000000000e+00 0 
-1.44827586206896552e+00 -2.00000000000000000e+00 0 
-1.31034482758620685e+00 -2.00000000000000000e+00 0 
-1.17241379310344840e+00 -2.00000000000000000e+00 0 
-1.03448275862068950e+00 -2.00000000000000000e+00 0 
-8.96551724137931050e-01 -2.00000000000000000e+00 0 
-7.58620689655172376e-01 -2.00000000000000000e+00 0 
-6.20689655172413701e-01 -2.00000000000000000e+00 0 
-4.82758620689655249e-01 -2.00000000000000000e+00 0 
-3.44827586206896575e-01 -2.00000000000000000e+00 0 
-2.06896551724137900e-01 -2.00000000000000000e+00 0 
-6.89655172413792261e-02 -2.00000000000000000e+00 0 
6.89655172413794482e-02 -2.00000000000000000e+00 0 
2.06896551724137900e-01 -2.00000000000000000e+00 0 
3.44827586206896353e-01 -2.00000000000000000e+00 0 
4.82758620689655249e-01 -2.00000000000000000e+00 0 
6.20689655172413701e-01 -2.00000000000000000e+00 0 
7.58620689655172598e-01 -2.00000000000000000e+00 0 
8.96551724137931050e-01 -2.00000000000000000e+00 0 
1.03448275862068950e+00 -2.00000000000000000e+00 0 
1.17241379310344840e+00 -2.00000000000000000e+00 0 
1.31034482758620685e+00 -2.00000000000000000e+00 0 
1.44827586206896530e+00 -2.00000000000000000e+00 0 
1.58620689655172420e+00 -2.00000000000000000e+00 0 
1.72413793103448265e+00 -2.00000000000000000e+00 0 
1.86206896551724155e+00 -2.00000000000000000e+00 0 
2.00000000000000000e+00 -2.00000000000000000e+00 0 
-2.00000000000000000e+00 -1.86206896551724133e+00 0 
-1.86206896551724133e+00 -1.86206896551724133e+00 0 
-1.72413793103448265e+00 -1.86206896551724133e+00 0 
-1.58620689655172420e+00 -1.86206896551724133e+00 0 
-1.44827586206896552e+00 -1.86206896551724133e+00 0 
-1.31034482758620685e+00 -1.86206896551724133e+00 0 
-1.17241379310344840e+00 -1.86206896551724133e+00 0 
-1.03448275862068950e+00 -1.86206896551724133e+00 0 
-8.96551724137931050e-01 -1.86206896551724133e+00 0 
-7.58620689655172376e-01 -1.86206896551724133e+00 0 
-6.20689655172413701e-01 -1.86206896551724133e+00 0 
-4.82758620689655249e-01 -1.86206896551724133e+00 0 
-3.44827586206896575e-01 -1.86206896551724133e+00 0 
-2.06896551724137900e-01 -1.86206896551724133e+00 0 
-6.89655172413792261e-02 -1.86206896551724133e+00 0 
6.89655172413794482e-02 -1.86206896551724133e+00 0 
2.06896551724137900e-01 -1.86206896551724133e+00 0 
3.44827586206896353e-01 -1.86206896551724133e+00 0 
4.82758620689655249e-01 -1.86206896551724133e+00 0 
6.20689655172413701e-01 -1.86206896551724133e+00 0 
7.58620689655172598e-01 -1.86206896551724133e+00 0 
8.96551724137931050e-01 -1.86206896551724133e+00 0 
1.03448275862068950e+00 -1.86206896551724133e+00 0 
1.17241379310344840e+00 -1.86206896551724133e+00 0 
1.31034482758620685e+00 -1.86206896551724133e+00 0 
1.44827586206896530e+00 -1.86206896551724133e+00 0 
1.58620689655172420e+00 -1.86206896551724133e+00 0 
1.72413793103448265e+00 -1.86206896551724133e+00 0 
1.86206896551724155e+00 -1.86206896551724133e+00 0 
2.00000000000000000e+00 -1.86206896551724133e+00 0 
-2.00000000000000000e+00 -1.72413793103448265e+00 0 
-1.86206896551724133e+00 -1.72413793103448265e+00 0 
-1.72413793103448265e+00 -1.72413793103448265e+00 0 
-1.58620689655172420e+00 -1.72413793103448265e+00 0 
-1.44827586206896552e+00 -1.72413793103448265e+00 0 
-1.31034482758620685e+00 -1.72413793103448265e+00 0 
-1.17241379310344840e+00 -1.72413793103448265e+00 0 
-1.03448275862068950e+00 -1.72413793103448265e+00 0 
-8.96551724137931050e-01 -1.72413793103448265e+00 0 
-7.58620689655172376e-01 -1.72413793103448265e+00 0 
-6.20689655172413701e-01 -1.72413793103448265e+00 0 
-4.82758620689655249e-01 -1.72413793103448265e+00 0 
-3.44827586206896575e-01 -1.72413793103448265e+00 0 
-2.06896551724137900e-01 -1.72413793103448265e+00 0 
-6.89655172413792261e-02 -1.72413793103448265e+00 0 
6.89655172413794482e-02 -1.72413793103448265e+00 0 
2.06896551724137900e-01 -1.72413793103448265e+00 0 
3.44827586206896353e-01 -1.72413793103448265e+00 0 
4.82758620689655249e-01 -1.72413793103448265e+00 0 
6.20689655172413701e-01 -1.72413793103448265e+00 0 
7.58620689655172598e-01 -1.72413793103448265e+00 0 
8.96551724137931050e-01 -1.72413793103448265e+00 0 
1.03448275862068950e+00 -1.72413793103448265e+00 0 
1.17241379310344840e+00 -1.72413793103448265e+00 0 
1.31034482758620685e+00 -1.72413793103448265e+00 0 
1.44827586206896530e+00 -1.72413793103448265e+00 0 
1.58620689655172420e+00 -1.72413793103448265e+00 0 
1.72413793103448265e+00 -1.72413793103448265e+00 0 
1.86206896551724155e+00 -1.72413793103448265e+00 0 
2.00000000000000000e+00 -1.72413793103448265e+00 0 
-2.00000000000000000e+00 -1.58620689655172420e+00 0 
-1.86206896551724133e+00 -1.58620689655172420e+00 0 
-1.72413793103448265e+00 -1.58620689655172420e+00 0 
-1.58620689655172420e+00 -1.58620689655172420e+00 0 
-1.44827586206896552e+00 -1.58620689655172420e+00 0 
-1.31034482758620685e+00 -1.58620689655172420e+00 0 
-1.17241379310344840e+00 -1.58620689655172420e+00 0 
-1.03448275862068950e+00 -1.58620689655172420e+00 0 
-8.96551724137931050e-01 -1.58620689655172420e+00 0 
-7.58620689655172376e-01 -1.58620689655172420e+00 0 
-6.20689655172413701e-01 -1.58620689655172420e+00 0 
-4.82758620689655249e-01 -1.58620689655172420e+00 0 
-3.44827586206896575e-01 -1.58620689655172420e+00 0 
-2.06896551724137900e-01 -1.58620689655172420e+00 0 
-6.89655172413792261e-02 -1.58620689655172420e+00 0 
6.89655172413794482e-02 -1.58620689655172420e+00 0 
2.06896551724137900e-01 -1.58620689655172420e+00 0 
3.44827586206896353e-01 -1.58620689655172420e+00 0 
4.82758620689655249e-01 -1.58620689655172420e+00 0 
6.20689655172413701e-01 -1.58620689655172420e+00 0 
7.58620689655172598e-01 -1.58620689655172420e+00 0 
8.96551724137931050e-01 -1.58620689655172420e+00 0 
1.03448275862068950e+00 -1.58620689655172420e+00 0 
1.17241379310344840e+00 -1.58620689655172420e+00 0 
1.31034482758620685e+00 -1.58620689655172420e+00 0 
1.44827586206896530e+00 -1.58620689655172420e+00 0 
1.58620689655172420e+00 -1.58620689655172420e+00 0 
1.72413793103448265e+00 -1.58620689655172420e+00 0 
1.86206896551724155e+00 -1.58620689655172420e+00 0 
2.00000000000000000e+00 -1.58620689655172420e+00 0 
-2.00000000000000000e+00 -1.44827586206896552e+00 0 
-1.86206896551724133e+00 -1.44827586206896552e+00 0 
-1.72413793103448265e+00 -1.44827586206896552e+00 0 
-1.58620689655172420e+00 -1.44827586206896552e+00 0 
-1.44827586206896552e+00 -1.44827586206896552e+00 0 
-1.31034482758620685e+00 -1.44827586206896552e+00 0 
-1.17241379310344840e+00 -1.44827586206896552e+00 0 
-1.03448275862068950e+00 -1.44827586206896552e+00 0 
-8.96551724137931050e-01 -1.44827586206896552e+00 0 
-7.58620689655172376e-01 -1.44827586206896552e+00 0 
-6.20689655172413701e-01 -1.44827586206896552e+00 0 
-4.82758620689655249e-01 -1.44827586206896552e+00 0 
-3.44827586206896575e-01 -1.44827586206896552e+00 0 
-2.06896551724137900e-01 -1.44827586206896552e+00 0 
-6.89655172413792261e-02 -1.44827586206896552e+00 0 
6.89655172413794482e-02 -1.44827586206896552e+00 0 
2.06896551724137900e-01 -1.44827586206896552e+00 0 
3.44827586206896353e-01 -1.44827586206896552e+00 0 
4.82758620689655249e-01 -1.44827586206896552e+00 0 
6.20689655172413701e-01 -1.44827586206896552e+00 0 
7.58620689655172598e-01 -1.44827586206896552e+00 0 
8.96551724137931050e-01 -1.44827586206896552e+00 0 
1.03448275862068950e+00 -1.44827586206896552e+00 0 
1.17241379310344840e+00 -1.44827586206896552e+00 0 
1.31034482758620685e+00 -1.44827586206896552e+00 0 
1.44827586206896530e+00 -1.44827586206896552e+00 0 
1.58620689655172420e+00 -1.44827586206896552e+00 0 
1.72413793103448265e+00 -1.44827586206896552e+00 0 
1.86206896551724155e+00 -1.44827586206896552e+00 0 
2.00000000000000000e+00 -1.44827586206896552e+00 0 
-2.00000000000000000e+00 -1.31034482758620685e+00 0 
-1.86206896551724133e+00 -1.31034482758620685e+00 0 
-1.72413793103448265e+00 -1.31034482758620685e+00 0 
-1.58620689655172420e+00 -1.31034482758620685e+00 0 
-1.44827586206896552e+00 -1.31034482758620685e+00 0 
-1.31034482758620685e+00 -1.31034482758620685e+00 0 
-1.17241379310344840e+00 -1.31034482758620685e+00 0 
-1.03448275862068950e+00 -1.31034482758620685e+00 0 
-8.96551724137931050e-01 -1.31034482758620685e+00 0 
-7.58620689655172376e-01 -1.31034482758620685e+00 0 
-6.20689655172413701e-01 -1.31034482758620685e+00 0 
-4.82758620689655249e-01 -1.31034482758620685e+00 0 
-3.44827586206896575e-01 -1.31034482758620685e+00 0 
-2.06896551724137900e-01 -1.31034482758620685e+00 0 
-6.89655172413792261e-02 -1.31034482758620685e+00 0 
6.89655172413794482e-02 -1.31034482758620685e+00 0 
2.06896551724137900e-01 -1.31034482758620685e+00 0 
3.44827586206896353e-01 -1.31034482758620685e+00 0 
4.82758620689655249e-01 -1.31034482758620685e+00 0 
6.20689655172413701e-01 -1.31034482758620685e+00 0 
7.58620689655172598e-01 -1.31034482758620685e+00 0 
8.96551724137931050e-01 -1.31034482758620685e+00 0 
1.03448275862068950e+00 -1.31034482758620685e+00 0 
1.17241379310344840e+00 -1.31034482758620685e+00 0 
1.31034482758620685e+00 -1.31034482758620685e+00 0 
1.44827586206896530e+00 -1.31034482758620685e+00 0 
1.58620689655172420e+00 -1.31034482758620685e+00 0 
1.72413793103448265e+00 -1.31034482758620685e+00 0 
1.86206896551724155e+00 -1.31034482758620685e+00 0 
2.00000000000000000e+00 -1.31034482758620685e+00 0 
-2.00000000000000000e+00 -1.17241379310344840e+00 0 
-1.86206896551724133e+00 -1.17241379310344840e+00 0 
-1.72413793103448265e+00 -1.17241379310344840e+00 0 
-1.58620689655172420e+00 -1.17241379310344840e+00 0 
-1.44827586206896552e+00 -1.17241379310344840e+00 0 
-1.31034482758620685e+00 -1.17241379310344840e+00 0 
[...]
<PointData>
<DataArray type="Float64" Name="gaussian_hill" NumberOfComponents="1" format="ascii">
0.00000000000000000e+00
0.00000000000000000e+00
0.00000000000000000e+00
0.00000000000000000e+00
0.00000000000000000e+00
0.00000000000000000e+00
0.00000000000000000e+00
0.00000000000000000e+00
0.00000000000000000e+00
0.00000000000000000e+00
0.00000000000000000e+00
0.00000000000000000e+00
0.00000000000000000e+00
0.00000000000000000e+00
0.00000000000000000e+00
0.00000000000000000e+00
0.00000000000000000e+00
0.00000000000000000e+00
0.00000000000000000e+00
0.00000000000000000e+00
0.00000000000000000e+00
0.00000000000000000e+00
0.00000000000000000e+00
0.00000000000000000e+00
0.00000000000000000e+00
0.00000000000000000e+00
0.00000000000000000e+00
0.00000000000000000e+00
0.00000000000000000e+00
0.00000000000000000e+00
0.00000000000000000e+00
3.57020633250400244e-03
7.15661600951114640e-03
1.07697170429789067e-02
1.44090221801330999e-02
1.80587693240200214e-02
2.16850824837611124e-02
2.52350161021906542e-02
2.86377569749725475e-02
3.18080483716201776e-02
3.46516489761919261e-02
3.70723736675286422e-02
3.89800224391070177e-02
4.02983310276448722e-02
4.09720108543677602e-02
4.09720108543678990e-02
4.02983310276449833e-02
3.89800224391071842e-02
3.70723736675286283e-02
3.46516489761918706e-02
3.18080483716200943e-02
2.86377569749724954e-02
2.52350161021905640e-02
2.16850824837610499e-02
1.80587693240199590e-02
1.44090221801331190e-02
1.07697170429789171e-02
7.15661600951116635e-03
3.57020633250400071e-03
0.00000000000000000e+00
0.00000000000000000e+00
7.23277826779503228e-03
1.45002708841507257e-02
2.18254552673349256e-02
2.92087456003334682e-02
3.66191140907146384e-02
4.39881969219944463e-02
5.12082661095285413e-02
5.81346438214693992e-02
6.45927044512225046e-02
7.03890892042752236e-02
7.53262067662776869e-02
7.92185914021093646e-02
8.19093269037458743e-02
8.32846031268909964e-02
8.32846031268909964e-02
8.19093269037462907e-02
7.92185914021093923e-02
7.53262067662777285e-02
7.03890892042749877e-02
6.45927044512224352e-02
5.81346438214692743e-02
5.12082661095284650e-02
4.39881969219943283e-02
3.66191140907146315e-02
2.92087456003335133e-02
2.18254552673349672e-02
1.45002708841507257e-02
7.23277826779504182e-03
0.00000000000000000e+00
0.00000000000000000e+00
1.10695014966343298e-02
2.21967364286452182e-02
3.34210938422507611e-02
4.47466339548645078e-02
5.61280867754401294e-02
6.74614808896533275e-02
7.85808117587494109e-02
8.92616836558519366e-02
9.92321831945006116e-02
1.08190421415750943e-01
1.15827305651924742e-01
1.21852297876962196e-01
1.26019328564921013e-01
1.28149798171373480e-01
1.28149798171373702e-01
1.26019328564921151e-01
1.21852297876962348e-01
1.15827305651924589e-01
1.08190421415750901e-01
9.92321831945004174e-02
8.92616836558519366e-02
7.85808117587490640e-02
6.74614808896531748e-02
5.61280867754398866e-02
4.47466339548645495e-02
3.34210938422507542e-02
2.21967364286452459e-02
1.10695014966343021e-02
0.00000000000000000e+00
0.00000000000000000e+00
1.51409982602368383e-02
3.03692117342579428e-02
4.57460931918456798e-02
6.12833582523207646e-02
7.69230886264127833e-02
9.25242779571572443e-02
1.07857858611350374e-01
1.22611580796193775e-01
1.36405161865836344e-01
1.48814957357117111e-01
1.59406149446430168e-01
1.67769282781907558e-01
1.73557114678612984e-01
1.76517385451946951e-01
1.76517385451946812e-01
1.73557114678613011e-01
1.67769282781907392e-01
1.59406149446430390e-01
1.48814957357117306e-01
1.36405161865836427e-01
1.22611580796193609e-01
1.07857858611350207e-01
9.25242779571568558e-02
7.69230886264124225e-02
6.12833582523205772e-02
4.57460931918456659e-02
3.03692117342578109e-02
1.51409982602368001e-02
0.00000000000000000e+00
0.00000000000000000e+00
1.94763821732137007e-02
3.90774418205345891e-02
5.88937257276819573e-02
7.89496853225799683e-02
9.91769415633142470e-02
1.19395999343170175e-01
1.39309204515091767e-01
1.58506851261248333e-01
1.76487078171089745e-01
1.92688625950899500e-01
2.06533825718822478e-01
2.17477586367114284e-01
2.25056947214887670e-01
2.28935238909479283e-01
2.28935238909479116e-01
2.25056947214886116e-01
2.17477586367112646e-01
2.06533825718822006e-01
1.92688625950900139e-01
1.76487078171089690e-01
1.58506851261248388e-01
1.39309204515091184e-01
1.19395999343169398e-01
9.91769415633134699e-02
7.89496853225794826e-02
5.88937257276816312e-02
3.90774418205344504e-02
1.94763821732136001e-02
0.00000000000000000e+00
0.00000000000000000e+00
2.40638254298489555e-02
4.82986071734131800e-02
7.28318283726561017e-02
9.77064813665488724e-02
1.22846470096735327e-01
1.48032666986339767e-01
1.72893312243357522e-01
1.96911309761821890e-01
2.19449348498911734e-01
2.39791756768091946e-01
2.57199770617428936e-01
2.70974780147620553e-01
2.80522503133690870e-01
2.85410305718204083e-01
2.85410305718203472e-01
2.80522503133689649e-01
2.70974780147618277e-01
2.57199770617427992e-01
2.39791756768091557e-01
2.19449348498911456e-01
1.96911309761821529e-01
1.72893312243356745e-01
1.48032666986338463e-01
1.22846470096734578e-01
9.77064813665479981e-02
7.28318283726555604e-02
4.82986071734128469e-02
2.40638254298488584e-02
0.00000000000000000e+00
0.00000000000000000e+00
2.88432294643068791e-02
5.79123919534801149e-02
8.73797480260285198e-02
1.17312825007712770e-01
1.47630973804706189e-01
1.78074957737032746e-01
2.08194295004100555e-01
2.37355664218001416e-01
2.64773665286977378e-01
2.89562698015348174e-01
3.10805900608126962e-01
3.27634374235366344e-01
3.39307818489177071e-01
3.45286719734960390e-01
3.45286719734959224e-01
3.39307818489174740e-01
3.27634374235364734e-01
3.10805900608124852e-01
2.89562698015347730e-01
2.64773665286976545e-01
2.37355664218000806e-01
2.08194295004098834e-01
1.78074957737031109e-01
1.47630973804705246e-01
1.17312825007711827e-01
8.73797480260277148e-02
5.79123919534798581e-02
2.88432294643066744e-02
0.00000000000000000e+00
0.00000000000000000e+00
3.37026278951193317e-02
6.76935437934480522e-02
1.02196580924129837e-01
1.37309258677666468e-01
1.72949703870178106e-01
2.08819096393942000e-01
2.44385511594206406e-01
2.78893315822478227e-01
3.11399837318979744e-01
3.40837956838041800e-01
3.66099790186677321e-01
3.86133250119285454e-01
4.00040620732359575e-01
4.07166997814357112e-01
4.07166997814355947e-01
4.00040620732357133e-01
3.86133250119283733e-01
3.66099790186675378e-01
3.40837956838039746e-01
3.11399837318977912e-01
2.78893315822476395e-01
2.44385511594204019e-01
2.08819096393939752e-01
1.72949703870176663e-01
1.37309258677665136e-01
1.02196580924128949e-01
6.76935437934475664e-02
3.37026278951192068e-02
0.00000000000000000e+00
0.00000000000000000e+00
3.84801000139376043e-02
7.73155601559731426e-02
1.16786347572276308e-01
1.57024032708014877e-01
1.97948647898681634e-01
2.39223587004204874e-01
2.80235641049724038e-01
3.20105230263419249e-01
3.57729033230110516e-01
3.91853571105009180e-01
4.21174147857055592e-01
4.44449449643816275e-01
4.60618853756437130e-01
4.68907888299272879e-01
4.68907888299271658e-01
4.60618853756434465e-01
4.44449449643813332e-01
4.21174147857052927e-01
3.91853571105006404e-01
3.57729033230107241e-01
3.20105230263417473e-01
2.80235641049721762e-01
2.39223587004202459e-01
1.97948647898679386e-01
1.57024032708013433e-01
1.16786347572275115e-01
7.73155601559726013e-02
3.84801000139374100e-02
0.00000000000000000e+00
0.00000000000000000e+00
4.29726310176234694e-02
8.63684572718081411e-02
1.30524741409776185e-01
1.75608889321102635e-01
2.21545345962013140e-01
2.67962953622470135e-01
3.14171094038804666e-01
3.59170583716434899e-01
4.01702020892477418e-01
4.40330087579097529e-01
4.73557472768957988e-01
4.99957266685727819e-01
5.18308813143513403e-01
5.27720054697157992e-01
5.27720054697157770e-01
5.18308813143512959e-01
4.99957266685726598e-01
4.73557472768955767e-01
4.40330087579094809e-01
4.01702020892474421e-01
3.59170583716432346e-01
3.14171094038801335e-01
2.67962953622467248e-01
2.21545345962010032e-01
1.75608889321100553e-01
1.30524741409774853e-01
8.63684572718075166e-02
4.29726310176231363e-02
0.00000000000000000e+00
0.00000000000000000e+00
4.69524088220873229e-02
9.43916621204420742e-02
1.42709163161103436e-01
1.92106943469041613e-01
2.42515350025286708e-01
2.93533381354098621e-01
3.44401138320312494e-01
3.94011208168400739e-01
4.40962157698607360e-01
4.83652612418768280e-01
5.20408930892604760e-01
5.49633994169172801e-01
5.69960189833192299e-01
5.80387387742365868e-01
5.80387387742366423e-01
5.69960189833191633e-01
5.49633994169171691e-01
5.20408930892603316e-01
4.83652612418767391e-01
4.40962157698606028e-01
3.94011208168398019e-01
3.44401138320308331e-01
2.93533381354094847e-01
2.42515350025283682e-01
1.92106943469039643e-01
1.42709163161102326e-01
9.43916621204411721e-02
4.69524088220868996e-02
0.00000000000000000e+00
0.00000000000000000e+00
5.01895675527115198e-02
1.00920055212339016e-01
1.52629106151317917e-01
2.05548799470614330e-01
2.59615593680352585e-01
3.14404724804605684e-01
3.69099493579286120e-01
4.22502979319800631e-01
4.73095768904913949e-01
5.19138171039495000e-01
5.58809387709424454e-01
5.90370053405027573e-01
6.12329617752338518e-01
6.23597478531855653e-01
6.23597478531855542e-01
6.12329617752339073e-01
5.90370053405025796e-01
5.58809387709424898e-01
5.19138171039494112e-01
4.73095768904912062e-01
4.22502979319798078e-01
3.69099493579282401e-01
3.14404724804602576e-01
2.59615593680349588e-01
2.05548799470612109e-01
1.52629106151316030e-01
1.00920055212337698e-01
5.01895675527110133e-02
0.00000000000000000e+00
0.00000000000000000e+00
5.24786819294891307e-02
1.05537706718352636e-01
1.59648551360735469e-01
2.15065517839922282e-01
2.71730068253749069e-01
3.29200905733566029e-01
3.86620940067383345e-01
4.42729198552433811e-01
4.95921574877610072e-01
5.44358889541823876e-01
5.86114352536093786e-01
6.19346040360402861e-01
6.42474701652338775e-01
6.54344425273693076e-01
6.54344425273693853e-01
6.42474701652340774e-01
6.19346040360403749e-01
5.86114352536095007e-01
5.44358889541824986e-01
4.95921574877609350e-01
4.42729198552429815e-01
3.86620940067380181e-01
3.29200905733563587e-01
2.71730068253746071e-01
2.15065517839920117e-01
1.59648551360733332e-01
1.05537706718351151e-01
5.24786819294884854e-02
0.00000000000000000e+00
0.00000000000000000e+00
5.36648870540300249e-02
1.07930918010017529e-01
1.63287460561494513e-01
2.20000640782285178e-01
2.78014729866439381e-01
3.36879950290636832e-01
3.95718211478507442e-01
4.53235111016440706e-01
5.07782255947926142e-01
5.57468382002793805e-01
6.00311163641133905e-01
6.34414908787906739e-01
6.58153842109478138e-01
6.70337787491194104e-01
6.70337787491194659e-01
6.58153842109480913e-01
6.34414908787909515e-01
6.00311163641136569e-01
5.57468382002797358e-01
5.07782255947927363e-01
4.53235111016439374e-01
3.95718211478504833e-01
3.36879950290632890e-01
2.78014729866435828e-01
2.20000640782282431e-01
1.63287460561492292e-01
1.07930918010016405e-01
5.36648870540294351e-02
0.00000000000000000e+00
0.00000000000000000e+00
5.36648870540298445e-02
1.07930918010017390e-01
1.63287460561494041e-01
2.20000640782285539e-01
2.78014729866439270e-01
3.36879950290636720e-01
3.95718211478507775e-01
4.53235111016439318e-01
5.07782255947924477e-01
5.57468382002792251e-01
6.00311163641132572e-01
6.34414908787904741e-01
6.58153842109477583e-01
6.70337787491192105e-01
6.70337787491191883e-01
6.58153842109479581e-01
6.34414908787911180e-01
6.00311163641138568e-01
5.57468382002796581e-01
5.07782255947928696e-01
4.53235111016440650e-01
3.95718211478506499e-01
3.36879950290634167e-01
2.78014729866435328e-01
2.20000640782281931e-01
1.63287460561491710e-01
1.07930918010016252e-01
5.36648870540293171e-02
0.00000000000000000e+00
0.00000000000000000e+00
5.24786819294888532e-02
1.05537706718351762e-01
1.59648551360734664e-01
2.15065517839921727e-01
2.71730068253748513e-01
3.29200905733565863e-01
3.86620940067381513e-01
4.42729198552429037e-01
4.95921574877607463e-01
5.44358889541819879e-01
5.86114352536090122e-01
6.19346040360398198e-01
6.42474701652336333e-01
6.54344425273690078e-01
6.54344425273691410e-01
6.42474701652339331e-01
6.19346040360406525e-01
5.86114352536096783e-01
5.44358889541825874e-01
4.95921574877610571e-01
4.42729198552433090e-01
3.86620940067382013e-01
3.29200905733564197e-01
2.71730068253746404e-01
2.15065517839918979e-01
1.59648551360732832e-01
1.05537706718351179e-01
5.24786819294885340e-02
0.00000000000000000e+00
0.00000000000000000e+00
5.01895675527112006e-02
1.00920055212338253e-01
1.52629106151316973e-01
2.05548799470613330e-01
2.59615593680351253e-01
3.14404724804604130e-01
3.69099493579283400e-01
4.22502979319795635e-01
4.73095768904908398e-01
5.19138171039489671e-01
5.58809387709419791e-01
5.90370053405020911e-01
6.12329617752332522e-01
6.23597478531851324e-01
6.23597478531853322e-01
6.12329617752335520e-01
5.90370053405026907e-01
5.58809387709426675e-01
5.19138171039496332e-01
4.73095768904913283e-01
4.22502979319799632e-01
3.69099493579283899e-01
3.14404724804603131e-01
2.59615593680350198e-01
2.05548799470611748e-01
1.52629106151315502e-01
1.00920055212337767e-01
5.01895675527110618e-02
0.00000000000000000e+00
0.00000000000000000e+00
4.69524088220871078e-02
9.43916621204413248e-02
1.42709163161102576e-01
1.92106943469040115e-01
2.42515350025284515e-01
2.93533381354095346e-01
3.44401138320308609e-01
3.94011208168396021e-01
4.40962157698600921e-01
4.83652612418762839e-01
5.20408930892599320e-01
5.49633994169165585e-01
5.69960189833184416e-01
5.80387387742359873e-01
5.80387387742361760e-01
5.69960189833188413e-01
5.49633994169172690e-01
5.20408930892605648e-01
4.83652612418766670e-01
4.40962157698604862e-01
3.94011208168398741e-01
3.44401138320308997e-01
2.93533381354096123e-01
2.42515350025284571e-01
1.92106943469039532e-01
1.42709163161102048e-01
9.43916621204411999e-02
4.69524088220868510e-02
0.00000000000000000e+00
0.00000000000000000e+00
4.29726310176232612e-02
8.63684572718078220e-02
1.30524741409775158e-01
1.75608889321101108e-01
2.21545345962010448e-01
2.67962953622466193e-01
3.14171094038799781e-01
3.59170583716429348e-01
4.01702020892471146e-01
4.40330087579090312e-01
4.73557472768952048e-01
4.99957266685721324e-01
5.18308813143505520e-01
5.27720054697151775e-01
5.27720054697151997e-01
5.18308813143509961e-01
4.99957266685726320e-01
4.73557472768955490e-01
4.40330087579094753e-01
4.01702020892473977e-01
3.59170583716431735e-01
3.14171094038801335e-01
2.67962953622467248e-01
2.21545345962010948e-01
1.75608889321100942e-01
1.30524741409775158e-01
8.63684572718076138e-02
4.29726310176231710e-02
0.00000000000000000e+00
0.00000000000000000e+00
3.84801000139375071e-02
7.73155601559726846e-02
1.16786347572275323e-01
1.57024032708013322e-01
1.97948647898679803e-01
2.39223587004202154e-01
2.80235641049720374e-01
3.20105230263414975e-01
3.57729033230105575e-01
3.91853571105003684e-01
4.21174147857050540e-01
4.44449449643807726e-01
4.60618853756427360e-01
4.68907888299264441e-01
4.68907888299265996e-01
4.60618853756433022e-01
4.44449449643812389e-01
4.21174147857053205e-01
3.91853571105006682e-01
3.57729033230107740e-01
3.20105230263417473e-01
2.80235641049721929e-01
2.39223587004203236e-01
1.97948647898679747e-01
1.57024032708013489e-01
1.16786347572274893e-01
7.73155601559725320e-02
3.84801000139373475e-02
0.00000000000000000e+00
0.00000000000000000e+00
3.37026278951191374e-02
6.76935437934474415e-02
1.02196580924128977e-01
1.37309258677665774e-01
1.72949703870176497e-01
2.08819096393939668e-01
2.44385511594203159e-01
2.78893315822474230e-01
3.11399837318975137e-01
3.40837956838036971e-01
3.66099790186671992e-01
3.86133250119278737e-01
4.00040620732351193e-01
4.07166997814350340e-01
4.07166997814351561e-01
4.00040620732354801e-01
3.86133250119283067e-01
3.66099790186675433e-01
3.40837956838039746e-01
3.11399837318977524e-01
2.78893315822476229e-01
2.44385511594204324e-01
2.08819096393940251e-01
1.72949703870176247e-01
1.37309258677665413e-01
1.02196580924128921e-01
6.76935437934473860e-02
3.37026278951191444e-02
0.00000000000000000e+00
0.00000000000000000e+00
2.88432294643065947e-02
5.79123919534796222e-02
8.73797480260278953e-02
1.17312825007712215e-01
1.47630973804705468e-01
1.78074957737031192e-01
2.08194295004098417e-01
2.37355664217998863e-01
2.64773665286974103e-01
2.89562698015344233e-01
3.10805900608120744e-01
3.27634374235360515e-01
3.39307818489170743e-01
3.45286719734955616e-01
3.45286719734956060e-01
3.39307818489173407e-01
3.27634374235363623e-01
3.10805900608124186e-01
2.89562698015346898e-01
2.64773665286976545e-01
2.37355664218000612e-01
2.08194295004099056e-01
1.78074957737030776e-01
1.47630973804704607e-01
1.17312825007711494e-01
8.73797480260276871e-02
5.79123919534797749e-02
2.88432294643066536e-02
0.00000000000000000e+00
0.00000000000000000e+00
2.40638254298487023e-02
4.82986071734126596e-02
7.28318283726553661e-02
9.77064813665479148e-02
1.22846470096734203e-01
1.48032666986337852e-01
1.72893312243355829e-01
1.96911309761819975e-01
2.19449348498909208e-01
2.39791756768088810e-01
2.57199770617424273e-01
2.70974780147616445e-01
2.80522503133687096e-01
2.85410305718200863e-01
2.85410305718200419e-01
2.80522503133687706e-01
2.70974780147617389e-01
2.57199770617426771e-01
2.39791756768090725e-01
2.19449348498910929e-01
1.96911309761821196e-01
1.72893312243356578e-01
1.48032666986338213e-01
1.22846470096734037e-01
9.77064813665476234e-02
7.28318283726554355e-02
4.82986071734128469e-02
2.40638254298487821e-02
0.00000000000000000e+00
0.00000000000000000e+00
1.94763821732134926e-02
3.90774418205341520e-02
5.88937257276813883e-02
7.89496853225791079e-02
9.91769415633130536e-02
1.19395999343168663e-01
1.39309204515090240e-01
1.58506851261246945e-01
1.76487078171087969e-01
1.92688625950897863e-01
2.06533825718819924e-01
2.17477586367111536e-01
2.25056947214885200e-01
2.28935238909477229e-01
2.28935238909477451e-01
2.25056947214885728e-01
2.17477586367112202e-01
2.06533825718821257e-01
1.92688625950899028e-01
1.76487078171089079e-01
1.58506851261247611e-01
1.39309204515090601e-01
1.19395999343169010e-01
9.91769415633129980e-02
7.89496853225791911e-02
5.88937257276813952e-02
3.90774418205342838e-02
1.94763821732135342e-02
0.00000000000000000e+00
0.00000000000000000e+00
1.51409982602367047e-02
3.03692117342576479e-02
4.57460931918452843e-02
6.12833582523202441e-02
7.69230886264119368e-02
9.25242779571562729e-02
1.07857858611349153e-01
1.22611580796192665e-01
1.36405161865834901e-01
1.48814957357115751e-01
1.59406149446428586e-01
1.67769282781906087e-01
1.73557114678611679e-01
1.76517385451945480e-01
1.76517385451945619e-01
1.73557114678612096e-01
1.67769282781906698e-01
1.59406149446429779e-01
1.48814957357117111e-01
1.36405161865835900e-01
1.22611580796193373e-01
1.07857858611349736e-01
9.25242779571565921e-02
7.69230886264120894e-02
6.12833582523203690e-02
4.57460931918454092e-02
3.03692117342577658e-02
1.51409982602367481e-02
0.00000000000000000e+00
0.00000000000000000e+00
1.10695014966342396e-02
2.21967364286450898e-02
3.34210938422505738e-02
4.47466339548641678e-02
5.61280867754394841e-02
6.74614808896524532e-02
7.85808117587485228e-02
8.92616836558509513e-02
9.92321831944995708e-02
1.08190421415749805e-01
1.15827305651923354e-01
1.21852297876961044e-01
1.26019328564920263e-01
1.28149798171372481e-01
1.28149798171372703e-01
1.26019328564920374e-01
1.21852297876961779e-01
1.15827305651924228e-01
1.08190421415750665e-01
9.92321831945003480e-02
8.92616836558517840e-02
7.85808117587490640e-02
6.74614808896530915e-02
5.61280867754397061e-02
4.47466339548643205e-02
3.34210938422505946e-02
2.21967364286451280e-02
1.10695014966342587e-02
0.00000000000000000e+00
0.00000000000000000e+00
7.23277826779500452e-03
1.45002708841506615e-02
2.18254552673348284e-02
2.92087456003332670e-02
3.66191140907142776e-02
4.39881969219938704e-02
5.12082661095279862e-02
5.81346438214688233e-02
6.45927044512218662e-02
7.03890892042744465e-02
7.53262067662771179e-02
7.92185914021086013e-02
8.19093269037454164e-02
8.32846031268904136e-02
8.32846031268904691e-02
8.19093269037455968e-02
7.92185914021090593e-02
7.53262067662776175e-02