<?xml version="1.0"?>
<VTKFile type="StructuredGrid">
<StructuredGrid WholeExtent="0 29 0 29 0 0 ">
<Piece Extent="0 29 0 29 0 0 ">
<Points>
<DataArray type="Float64" Name="coordinate" NumberOfComponents="3" format="ascii">
-2.00000000000000000e+00 -2.00000000000000000e+00 0 
-1.86206896551724133e+00 -2.00000000000000000e+00 0 
-1.72413793103448265e+00 -2.00000000000000000e+00 0 
-1.58620689655172420e+00 -2.00000000000000000e+00 0 
-1.44827586206896552e+00 -2.00000000000000000e+00 0 
-1.31034482758620685e+00 -2.00000000000000000e+00 0 
-1.17241379310344840e+00 -2.00000000000000000e+00 0 
-1.03448275862068950e+00 -2.00000000000000000e+00 0 
-8.96551724137931050e-01 -2.00000000000000000e+00 0 
-7.58620689655172376e-01 -2.00000000000000000e+00 0 
-6.20689655172413701e-01 -2.00000000000000000e+00 0 
-4.82758620689655249e-01 -2.00000000000000000e+00 0 
-3.44827586206896575e-01 -2.00000000000000000e+00 0 
-2.06896551724137900e-01 -2.00000000000000000e+00 0 
-6.89655172413792261e-02 -2.00000000000000000e+00 0 
6.89655172413794482e-02 -2.00000000000000000e+00 0 
2.06896551724137900e-01 -2.00000000000000000e+00 0 
3.44827586206896353e-01 -2.00000000000000000e+00 0 
4.82758620689655249e-01 -2.00000000000000000e+00 0 
6.20689655172413701e-01 -2.00000000000000000e+00 0 
7.58620689655172598e-01 -2.00000000000000000e+00 0 
8.96551724137931050e-01 -2.00000000000000000e+00 0 
1.03448275862068950e+00 -2.00000000000000000e+00 0 
1.17241379310344840e+00 -2.00000000000000000e+00 0 
1.31034482758620685e+00 -2.00000000000000000e+00 0 
1.44827586206896530e+00 -2.00000000000000000e+00 0 
1.58620689655172420e+00 -2.00000000000000000e+00 0 
1.72413793103448265e+00 -2.00000000000000000e+00 0 
1.86206896551724155e+00 -2.00000000000000000e+00 0 
2.00000000000000000e+00 -2.00000000000000000e+00 0 
-2.00000000000000000e+00 -1.86206896551724133e+00 0 
-1.86206896551724133e+00 -1.86206896551724133e+00 0 
-1.72413793103448265e+00 -1.86206896551724133e+00 0 
-1.58620689655172420e+00 -1.86206896551724133e+00 0 
-1.44827586206896552e+00 -1.86206896551724133e+00 0 
-1.31034482758620685e+00 -1.86206896551724133e+00 0 
-1.17241379310344840e+00 -1.86206896551724133e+00 0 
-1.03448275862068950e+00 -1.86206896551724133e+00 0 
-8.96551724137931050e-01 -1.86206896551724133e+00 0 
-7.58620689655172376e-01 -1.86206896551724133e+00 0 
-6.20689655172413701e-01 -1.86206896551724133e+00 0 
-4.82758620689655249e-01 -1.86206896551724133e+00 0 
-3.44827586206896575e-01 -1.86206896551724133e+00 0 
-2.06896551724137900e-01 -1.86206896551724133e+00 0 
-6.89655172413792261e-02 -1.86206896551724133e+00 0 
6.89655172413794482e-02 -1.86206896551724133e+00 0 
2.06896551724137900e-01 -1.86206896551724133e+00 0 
3.44827586206896353e-01 -1.86206896551724133e+00 0 
4.82758620689655249e-01 -1.86206896551724133e+00 0 
6.20689655172413701e-01 -1.86206896551724133e+00 0 
7.58620689655172598e-01 -1.86206896551724133e+00 0 
8.96551724137931050e-01 -1.86206896551724133e+00 0 
1.03448275862068950e+00 -1.86206896551724133e+00 0 
1.17241379310344840e+00 -1.86206896551724133e+00 0 
1.31034482758620685e+00 -1.86206896551724133e+00 0 
1.44827586206896530e+00 -1.86206896551724133e+00 0 
1.58620689655172420e+00 -1.86206896551724133e+00 0 
1.72413793103448265e+00 -1.86206896551724133e+00 0 
1.86206896551724155e+00 -1.86206896551724133e+00 0 
2.00000000000000000e+00 -1.86206896551724133e+00 0 
-2.00000000000000000e+00 -1.72413793103448265e+00 0 
-1.86206896551724133e+00 -1.72413793103448265e+00 0 
-1.72413793103448265e+00 -1.72413793103448265e+00 0 
-1.58620689655172420e+00 -1.72413793103448265e+00 0 
-1.44827586206896552e+00 -1.72413793103448265e+00 0 
-1.31034482758620685e+00 -1.72413793103448265e+00 0 
-1.17241379310344840e+00 -1.72413793103448265e+00 0 
-1.03448275862068950e+00 -1.72413793103448265e+00 0 
-8.96551724137931050e-01 -1.72413793103448265e+00 0 
-7.58620689655172376e-01 -1.72413793103448265e+00 0 
-6.20689655172413701e-01 -1.72413793103448265e+00 0 
-4.82758620689655249e-01 -1.72413793103448265e+00 0 
-3.44827586206896575e-01 -1.72413793103448265e+00 0 
-2.06896551724137900e-01 -1.72413793103448265e+00 0 
-6.89655172413792261e-02 -1.72413793103448265e+00 0 
6.89655172413794482e-02 -1.72413793103448265e+00 0 
2.06896551724137900e-01 -1.72413793103448265e+00 0 
3.44827586206896353e-01 -1.72413793103448265e+00 0 
4.82758620689655249e-01 -1.72413793103448265e+00 0 
6.20689655172413701e-01 -1.72413793103448265e+00 0 
7.58620689655172598e-01 -1.72413793103448265e+00 0 
8.96551724137931050e-01 -1.72413793103448265e+00 0 
1.03448275862068950e+00 -1.72413793103448265e+00 0 
1.17241379310344840e+00 -1.72413793103448265e+00 0 
1.31034482758620685e+00 -1.72413793103448265e+00 0 
1.44827586206896530e+00 -1.72413793103448265e+00 0 
1.58620689655172420e+00 -1.72413793103448265e+00 0 
1.72413793103448265e+00 -1.72413793103448265e+00 0 
1.86206896551724155e+00 -1.72413793103448265e+00 0 
2.00000000000000000e+00 -1.72413793103448265e+00 0 
-2.00000000000000000e+00 -1.58620689655172420e+00 0 
-1.86206896551724133e+00 -1.58620689655172420e+00 0 
-1.72413793103448265e+00 -1.58620689655172420e+00 0 
-1.58620689655172420e+00 -1.58620689655172420e+00 0 
-1.44827586206896552e+00 -1.58620689655172420e+00 0 
-1.31034482758620685e+00 -1.58620689655172420e+00 0 
-1.17241379310344840e+00 -1.58620689655172420e+00 0 
-1.03448275862068950e+00 -1.58620689655172420e+00 0 
-8.96551724137931050e-01 -1.58620689655172420e+00 0 
-7.58620689655172376e-01 -1.58620689655172420e+00 0 
-6.20689655172413701e-01 -1.58620689655172420e+00 0 
-4.82758620689655249e-01 -1.58620689655172420e+00 0 
-3.44827586206896575e-01 -1.58620689655172420e+00 0 
-2.06896551724137900e-01 -1.58620689655172420e+00 0 
-6.89655172413792261e-02 -1.58620689655172420e+00 0 
6.89655172413794482e-02 -1.58620689655172420e+00 0 
2.06896551724137900e-01 -1.58620689655172420e+00 0 
3.44827586206896353e-01 -1.58620689655172420e+00 0 
4.82758620689655249e-01 -1.58620689655172420e+00 0 
6.20689655172413701e-01 -1.58620689655172420e+00 0 
7.58620689655172598e-01 -1.58620689655172420e+00 0 
8.96551724137931050e-01 -1.58620689655172420e+00 0 
1.03448275862068950e+00 -1.58620689655172420e+00 0 
1.17241379310344840e+00 -1.58620689655172420e+00 0 
1.31034482758620685e+00 -1.58620689655172420e+00 0 
1.44827586206896530e+00 -1.58620689655172420e+00 0 
1.58620689655172420e+00 -1.58620689655172420e+00 0 
1.72413793103448265e+00 -1.58620689655172420e+00 0 
1.86206896551724155e+00 -1.58620689655172420e+00 0 
2.00000000000000000e+00 -1.58620689655172420e+00 0 
-2.00000000000000000e+00 -1.44827586206896552e+00 0 
-1.86206896551724133e+00 -1.44827586206896552e+00 0 
-1.72413793103448265e+00 -1.44827586206896552e+00 0 
-1.58620689655172420e+00 -1.44827586206896552e+00 0 
-1.44827586206896552e+00 -1.44827586206896552e+00 0 
-1.31034482758620685e+00 -1.44827586206896552e+00 0 
-1.17241379310344840e+00 -1.44827586206896552e+00 0 
-1.03448275862068950e+00 -1.44827586206896552e+00 0 
-8.96551724137931050e-01 -1.44827586206896552e+00 0 
-7.58620689655172376e-01 -1.44827586206896552e+00 0 
-6.20689655172413701e-01 -1.44827586206896552e+00 0 
-4.82758620689655249e-01 -1.44827586206896552e+00 0 
-3.44827586206896575e-01 -1.44827586206896552e+00 0 
-2.06896551724137900e-01 -1.44827586206896552e+00 0 
-6.89655172413792261e-02 -1.44827586206896552e+00 0 
6.89655172413794482e-02 -1.44827586206896552e+00 0 
2.06896551724137900e-01 -1.44827586206896552e+00 0 
3.44827586206896353e-01 -1.44827586206896552e+00 0 
4.82758620689655249e-01 -1.44827586206896552e+00 0 
6.20689655172413701e-01 -1.44827586206896552e+00 0 
7.58620689655172598e-01 -1.44827586206896552e+00 0 
8.96551724137931050e-01 -1.44827586206896552e+00 0 
1.03448275862068950e+00 -1.44827586206896552e+00 0 
1.17241379310344840e+00 -1.44827586206896552e+00 0 
1.31034482758620685e+00 -1.44827586206896552e+00 0 
1.44827586206896530e+00 -1.44827586206896552e+00 0 
1.58620689655172420e+00 -1.44827586206896552e+00 0 
1.72413793103448265e+00 -1.44827586206896552e+00 0 
1.86206896551724155e+00 -1.44827586206896552e+00 0 
2.00000000000000000e+00 -1.44827586206896552e+00 0 
-2.00000000000000000e+00 -1.31034482758620685e+00 0 
-1.86206896551724133e+00 -1.31034482758620685e+00 0 
-1.72413793103448265e+00 -1.31034482758620685e+00 0 
-1.58620689655172420e+00 -1.31034482758620685e+00 0 
-1.44827586206896552e+00 -1.31034482758620685e+00 0 
-1.31034482758620685e+00 -1.31034482758620685e+00 0 
-1.17241379310344840e+00 -1.31034482758620685e+00 0 
-1.03448275862068950e+00 -1.31034482758620685e+00 0 
-8.96551724137931050e-01 -1.31034482758620685e+00 0 
-7.58620689655172376e-01 -1.31034482758620685e+00 0 
-6.20689655172413701e-01 -1.31034482758620685e+00 0 
-4.82758620689655249e-01 -1.31034482758620685e+00 0 
-3.44827586206896575e-01 -1.31034482758620685e+00 0 
-2.06896551724137900e-01 -1.31034482758620685e+00 0 
-6.89655172413792261e-02 -1.31034482758620685e+00 0 
6.89655172413794482e-02 -1.31034482758620685e+00 0 
2.06896551724137900e-01 -1.31034482758620685e+00 0 
3.44827586206896353e-01 -1.31034482758620685e+00 0 
4.82758620689655249e-01 -1.31034482758620685e+00 0 
6.20689655172413701e-01 -1.31034482758620685e+00 0 
7.58620689655172598e-01 -1.31034482758620685e+00 0 
8.96551724137931050e-01 -1.31034482758620685e+00 0 
1.03448275862068950e+00 -1.31034482758620685e+00 0 
1.17241379310344840e+00 -1.31034482758620685e+00 0 
1.31034482758620685e+00 -1.31034482758620685e+00 0 
1.44827586206896530e+00 -1.31034482758620685e+00 0 
1.58620689655172420e+00 -1.31034482758620685e+00 0 
1.72413793103448265e+00 -1.31034482758620685e+00 0 
1.86206896551724155e+00 -1.31034482758620685e+00 0 
2.00000000000000000e+00 -1.31034482758620685e+00 0 
-2.00000000000000000e+00 -1.17241379310344840e+00 0 
-1.86206896551724133e+00 -1.17241379310344840e+00 0 
-1.72413793103448265e+00 -1.17241379310344840e+00 0 
-1.58620689655172420e+00 -1.17241379310344840e+00 0 
-1.44827586206896552e+00 -1.17241379310344840e+00 0 
-1.31034482758620685e+00 -1.17241379310344840e+00 0 
[...]
<PointData>
<DataArray type="Float64" Name="gaussian_hill" NumberOfComponents="1" format="ascii">
0.00000000000000000e+00
0.00000000000000000e+00
0.00000000000000000e+00
0.00000000000000000e+00
0.00000000000000000e+00
0.00000000000000000e+00
0.00000000000000000e+00
0.00000000000000000e+00
0.00000000000000000e+00
0.00000000000000000e+00
0.00000000000000000e+00
0.00000000000000000e+00
0.00000000000000000e+00
0.00000000000000000e+00
0.00000000000000000e+00
0.00000000000000000e+00
0.00000000000000000e+00
0.00000000000000000e+00
0.00000000000000000e+00
0.00000000000000000e+00
0.00000000000000000e+00
0.00000000000000000e+00
0.00000000000000000e+00
0.00000000000000000e+00
0.00000000000000000e+00
0.00000000000000000e+00
0.00000000000000000e+00
0.00000000000000000e+00
0.00000000000000000e+00
0.00000000000000000e+00
0.00000000000000000e+00
3.29841088910843129e-03
6.56761884043377629e-03
9.77778158316124774e-03
1.28978857076694643e-02
1.58954189813263203e-02
1.87363224162892979e-02
2.13852685133621781e-02
2.38062772724632193e-02
2.59636444022483918e-02
2.78231204246070854e-02
2.93532488942591409e-02
3.05267502488177703e-02
3.13218275997119849e-02
3.17232736154120093e-02
3.17232736154120371e-02
3.13218275997120335e-02
3.05267502488178327e-02
2.93532488942591756e-02
2.78231204246071583e-02
2.59636444022484439e-02
2.38062772724633442e-02
2.13852685133622718e-02
1.87363224162893360e-02
1.58954189813263029e-02
1.28978857076693740e-02
9.77778158316123212e-03
6.56761884043379537e-03
3.29841088910839400e-03
0.00000000000000000e+00
0.00000000000000000e+00
6.57695828003669776e-03
1.30957754596303499e-02
1.94970256017365992e-02
2.57189284640441315e-02
3.16966888955700146e-02
3.73623966508282238e-02
4.26455797199185235e-02
4.74744345315072092e-02
5.17776819598960089e-02
5.54869264559573402e-02
5.85393345216917160e-02
6.08804052016184913e-02
6.24665847551516690e-02
6.32674833166562145e-02
6.32674833166562006e-02
6.24665847551516343e-02
6.08804052016184566e-02
5.85393345216918201e-02
5.54869264559575484e-02
5.17776819598961269e-02
4.74744345315073202e-02
4.26455797199187733e-02
3.73623966508283209e-02
3.16966888955700354e-02
2.57189284640441246e-02
1.94970256017365021e-02
1.30957754596303828e-02
6.57695828003674980e-03
0.00000000000000000e+00
0.00000000000000000e+00
9.81410715613994372e-03
1.95416700857575093e-02
2.90942032596874824e-02
3.83796622216503805e-02
4.73014405161211043e-02
5.57582091089338996e-02
6.36447384958193502e-02
7.08537389443320287e-02
7.72786424556217155e-02
8.28171423256673228e-02
8.73752142123930958e-02
9.08712769910482443e-02
9.32401206896888296e-02
9.44362371615986435e-02
9.44362371615988239e-02
9.32401206896888157e-02
9.08712769910478696e-02
8.73752142123929848e-02
8.28171423256671979e-02
7.72786424556215629e-02
7.08537389443318899e-02
6.36447384958193363e-02
5.57582091089338650e-02
4.73014405161210905e-02
3.83796622216505470e-02
2.90942032596877426e-02
1.95416700857575683e-02
9.81410715613999923e-03
0.00000000000000000e+00
0.00000000000000000e+00
1.29851802466079309e-02
2.58562283214234211e-02
3.84964011684515509e-02
5.07841662776045422e-02
6.25918440452423591e-02
7.37853758116394920e-02
8.42254053129740388e-02
9.37697214926149353e-02
1.02276961206194603e-01
1.09611326353539887e-01
1.15647946870582261e-01
1.20278433050831537e-01
1.23416118978515690e-01
1.25000509824812311e-01
1.25000509824812422e-01
1.23416118978515510e-01
1.20278433050831718e-01
1.15647946870582330e-01
1.09611326353539693e-01
1.02276961206194367e-01
9.37697214926147132e-02
8.42254053129736918e-02
7.37853758116392006e-02
6.25918440452421648e-02
5.07841662776047711e-02
3.84964011684517868e-02
2.58562283214236605e-02
1.29851802466079934e-02
0.00000000000000000e+00
0.00000000000000000e+00
1.60612725770542183e-02
3.19819326138942178e-02
4.76180755012586970e-02
6.28197532111068463e-02
7.74292499025009129e-02
9.12807660969105622e-02
1.04201746963679925e-01
1.16015915578059542e-01
1.26547885124456472e-01
1.35629043689266537e-01
1.43104250934321442e-01
1.48838775452431293e-01
1.52724849025296455e-01
1.54687227421853091e-01
1.54687227421852924e-01
1.52724849025296677e-01
1.48838775452431571e-01
1.43104250934321525e-01
1.35629043689266898e-01
1.26547885124456305e-01
1.16015915578059528e-01
1.04201746963679551e-01
9.12807660969101459e-02
7.74292499025010517e-02
6.28197532111070545e-02
4.76180755012589607e-02
3.19819326138945023e-02
1.60612725770543328e-02
0.00000000000000000e+00
0.00000000000000000e+00
1.90087035445307834e-02
3.78517260904850592e-02
5.63594076442152786e-02
7.43547780725810625e-02
9.16514566121733598e-02
1.08053239853180771e-01
1.23355661370676037e-01
1.37349597110091232e-01
1.49826766694080044e-01
1.60586764469229787e-01
1.69445068661588760e-01
1.76241344005228229e-01
1.80847289623497276e-01
1.83173299618247548e-01
1.83173299618247326e-01
1.80847289623497387e-01
1.76241344005228701e-01
1.69445068661589260e-01
1.60586764469229787e-01
1.49826766694080155e-01
1.37349597110091703e-01
1.23355661370676190e-01
1.08053239853180688e-01
9.16514566121731100e-02
7.43547780725809654e-02
5.63594076442153341e-02
3.78517260904851494e-02
1.90087035445307938e-02
0.00000000000000000e+00
0.00000000000000000e+00
2.17891114170011974e-02
4.33891982693153308e-02
6.46065747930634343e-02
8.52389849858153498e-02
1.05073122646720876e-01
1.23884112760152973e-01
1.41437284162802990e-01
1.57492320972503236e-01
1.71809620230583437e-01
1.84158431666728878e-01
1.94326139557087829e-01
2.02127891464615211e-01
2.07415704114761401e-01
2.10086194372166440e-01
2.10086194372166413e-01
2.07415704114761901e-01
2.02127891464615822e-01
1.94326139557087996e-01
1.84158431666729044e-01
1.71809620230583382e-01
1.57492320972503819e-01
1.41437284162803489e-01
1.23884112760152737e-01
1.05073122646720279e-01
8.52389849858147253e-02
6.46065747930628514e-02
4.33891982693151920e-02
2.17891114170012078e-02
0.00000000000000000e+00
0.00000000000000000e+00
2.43602348226657807e-02
4.85101418812376520e-02
7.22340695486830969e-02
9.53065701017171696e-02
1.17489545874789061e-01
1.38531617281966557e-01
1.58170087607065135e-01
1.76135605232892262e-01
1.92159329526895656e-01
2.05982121379931493e-01
2.17365034183341937e-01
2.26100204460939036e-01
2.32021156171292653e-01
2.35011552200783652e-01
2.35011552200783569e-01
2.32021156171292514e-01
2.26100204460937787e-01
2.17365034183340800e-01
2.05982121379930744e-01
1.92159329526894490e-01
1.76135605232891901e-01
1.58170087607064386e-01
1.38531617281965502e-01
1.17489545874787660e-01
9.53065701017161843e-02
7.22340695486821810e-02
4.85101418812371454e-02
2.43602348226656003e-02
0.00000000000000000e+00
0.00000000000000000e+00
2.66773562575807165e-02
5.31254313283457610e-02
7.91089954500531212e-02
1.04381865579428273e-01
1.28683694699230855e-01
1.51739224856922789e-01
1.73260420842823532e-01
1.92951597793826785e-01
2.10517329615702270e-01
2.25672608563418003e-01
2.38154453787285059e-01
2.47733970043428064e-01
2.54227762482637287e-01
2.57507634469071711e-01
2.57507634469070490e-01
2.54227762482636677e-01
2.47733970043426788e-01
2.38154453787282866e-01
2.25672608563416283e-01
2.10517329615700605e-01
1.92951597793826146e-01
1.73260420842823226e-01
1.51739224856921845e-01
1.28683694699229551e-01
1.04381865579426844e-01
7.91089954500520803e-02
5.31254313283450949e-02
2.66773562575804320e-02
0.00000000000000000e+00
0.00000000000000000e+00
2.86953097326332549e-02
5.71450277697152093e-02
8.50970478366878669e-02
1.12287260767061817e-01
1.38436017146528673e-01
1.63247269961466351e-01
1.86410851936585270e-01
2.07608012421175686e-01
2.26519983746353210e-01
2.42839002348840455e-01
2.56280912879664757e-01
2.66598268837163144e-01
2.73592738816878067e-01
2.77125649773433402e-01
2.77125649773432847e-01
2.73592738816876735e-01
2.66598268837161534e-01
2.56280912879662204e-01
2.42839002348837874e-01
2.26519983746350961e-01
2.07608012421174576e-01
1.86410851936584548e-01
1.63247269961465463e-01
1.38436017146527229e-01
1.12287260767060693e-01
8.50970478366866873e-02
5.71450277697143350e-02
2.86953097326328281e-02
0.00000000000000000e+00
0.00000000000000000e+00
3.03708861253332782e-02
6.04827788765803301e-02
9.00696844793975882e-02
1.18852704528516276e-01
1.46536215908026651e-01
1.72806914359020791e-01
1.97336208611744335e-01
2.19786099980665978e-01
2.39818303156961427e-01
2.57105995427174827e-01
2.71347263542438488e-01
2.82279087331344436e-01
2.89690586816726381e-01
2.93434282897166998e-01
2.93434282897166387e-01
2.89690586816725493e-01
2.82279087331341716e-01
2.71347263542435380e-01
2.57105995427172107e-01
2.39818303156959262e-01
2.19786099980664257e-01
1.97336208611743474e-01
1.72806914359020208e-01
1.46536215908025597e-01
1.18852704528515304e-01
9.00696844793969775e-02
6.04827788765794003e-02
3.03708861253328723e-02
0.00000000000000000e+00
0.00000000000000000e+00
3.16654144587488820e-02
6.30615706491536171e-02
9.39118245944422364e-02
1.23925912010074468e-01
1.52795902565620145e-01
1.80195162227288930e-01
2.05780836046671217e-01
2.29199994322881656e-01
2.50099186853488809e-01
2.68136762676862428e-01
2.82996978191182358e-01
2.94404674181834691e-01
3.02139183686840840e-01
3.06046156667371283e-01
3.06046156667370783e-01
3.02139183686840063e-01
2.94404674181833137e-01
2.82996978191179138e-01
2.68136762676859430e-01
2.50099186853484923e-01
2.29199994322879241e-01
2.05780836046669940e-01
1.80195162227288430e-01
1.52795902565619229e-01
1.23925912010073414e-01
9.39118245944412094e-02
6.30615706491528816e-02
3.16654144587484240e-02
0.00000000000000000e+00
0.00000000000000000e+00
3.25472638651790463e-02
6.48183216833721904e-02
9.65293142107581797e-02
1.27382264812484547e-01
1.57060876366275110e-01
1.85229435918714741e-01
2.11535357070832819e-01
2.35615508627838144e-01
2.57106066694182622e-01
2.75655227090351729e-01
2.90937769027441617e-01
3.02670210152759467e-01
3.10625170117331761e-01
3.14643584337962468e-01
3.14643584337961635e-01
3.10625170117330540e-01
3.02670210152757690e-01
2.90937769027439064e-01
2.75655227090348343e-01
2.57106066694177904e-01
2.35615508627835313e-01
2.11535357070830932e-01
1.85229435918713853e-01
1.57060876366274138e-01
1.27382264812483381e-01
9.65293142107567781e-02
6.48183216833711079e-02
3.25472638651785121e-02
0.00000000000000000e+00
0.00000000000000000e+00
3.29940061813640897e-02
6.57083005029630712e-02
9.78553808437745004e-02
1.29133372904734228e-01
1.59221746265696157e-01
1.87780189086333649e-01
2.14451180434949568e-01
2.38866411664057088e-01
2.60656790188735166e-01
2.79465352081155860e-01
2.94962058113380277e-01
3.06859192722485186e-01
3.14925960172903252e-01
3.19000896952376933e-01
3.19000896952376212e-01
3.14925960172903308e-01
3.06859192722483798e-01
2.94962058113377390e-01
2.79465352081152585e-01
2.60656790188730891e-01
2.38866411664053896e-01
2.14451180434946986e-01
1.87780189086331650e-01
1.59221746265695158e-01
1.29133372904733090e-01
9.78553808437735428e-02
6.57083005029622802e-02
3.29940061813635763e-02
0.00000000000000000e+00
0.00000000000000000e+00
3.29940061813640204e-02
6.57083005029631961e-02
9.78553808437742645e-02
1.29133372904734256e-01
1.59221746265695990e-01
1.87780189086333898e-01
2.14451180434949373e-01
2.38866411664057060e-01
2.60656790188734722e-01
2.79465352081155083e-01
2.94962058113379444e-01
3.06859192722485130e-01
3.14925960172903696e-01
3.19000896952376822e-01
3.19000896952376323e-01
3.14925960172902142e-01
3.06859192722483798e-01
2.94962058113377557e-01
2.79465352081153251e-01
2.60656790188730891e-01
2.38866411664053618e-01
2.14451180434946570e-01
1.87780189086331095e-01
1.59221746265694797e-01
1.29133372904733174e-01
9.78553808437734735e-02
6.57083005029623218e-02
3.29940061813635901e-02
0.00000000000000000e+00
0.00000000000000000e+00
3.25472638651789353e-02
6.48183216833716075e-02
9.65293142107575275e-02
1.27382264812483964e-01
1.57060876366274998e-01
1.85229435918714824e-01
2.11535357070832347e-01
2.35615508627837311e-01
2.57106066694181568e-01
2.75655227090352006e-01
2.90937769027441562e-01
3.02670210152758856e-01
3.10625170117331706e-01
3.14643584337961635e-01
3.14643584337961801e-01
3.10625170117331095e-01
3.02670210152758745e-01
2.90937769027439841e-01
2.75655227090349508e-01
2.57106066694179236e-01
2.35615508627835785e-01
2.11535357070830321e-01
1.85229435918713242e-01
1.57060876366273472e-01
1.27382264812483270e-01
9.65293142107570001e-02
6.48183216833711773e-02
3.25472638651785745e-02
0.00000000000000000e+00
0.00000000000000000e+00
3.16654144587487640e-02
6.30615706491534506e-02
9.39118245944415425e-02
1.23925912010074121e-01
1.52795902565619951e-01
1.80195162227288819e-01
2.05780836046670412e-01
2.29199994322880574e-01
2.50099186853488142e-01
2.68136762676862261e-01
2.82996978191182358e-01
2.94404674181834969e-01
3.02139183686840229e-01
3.06046156667370506e-01
3.06046156667370284e-01
3.02139183686839341e-01
2.94404674181833192e-01
2.82996978191180359e-01
2.68136762676859930e-01
2.50099186853486255e-01
2.29199994322878631e-01
2.05780836046669136e-01
1.80195162227287459e-01
1.52795902565618674e-01
1.23925912010072845e-01
9.39118245944407098e-02
6.30615706491526318e-02
3.16654144587483685e-02
0.00000000000000000e+00
0.00000000000000000e+00
3.03708861253331325e-02
6.04827788765798652e-02
9.00696844793971718e-02
1.18852704528515901e-01
1.46536215908026540e-01
1.72806914359020625e-01
1.97336208611743419e-01
2.19786099980664201e-01
2.39818303156960788e-01
2.57105995427173939e-01
2.71347263542437489e-01
2.82279087331343437e-01
2.89690586816724882e-01
2.93434282897165832e-01
2.93434282897164556e-01
2.89690586816723772e-01
2.82279087331341383e-01
2.71347263542435657e-01
2.57105995427171441e-01
2.39818303156957902e-01
2.19786099980661814e-01
1.97336208611742309e-01
1.72806914359019459e-01
1.46536215908025097e-01
1.18852704528514846e-01
9.00696844793963530e-02
6.04827788765792546e-02
3.03708861253328480e-02
0.00000000000000000e+00
0.00000000000000000e+00
2.86953097326330640e-02
5.71450277697148623e-02
8.50970478366872285e-02
1.12287260767061289e-01
1.38436017146527923e-01
1.63247269961465491e-01
1.86410851936584659e-01
2.07608012421174298e-01
2.26519983746352044e-01
2.42839002348839150e-01
2.56280912879663925e-01
2.66598268837162478e-01
2.73592738816876291e-01
2.77125649773432459e-01
2.77125649773431459e-01
2.73592738816875791e-01
2.66598268837161145e-01
2.56280912879662093e-01
2.42839002348836264e-01
2.26519983746348519e-01
2.07608012421172161e-01
1.86410851936583244e-01
1.63247269961464797e-01
1.38436017146526980e-01
1.12287260767060290e-01
8.50970478366865068e-02
5.71450277697143350e-02
2.86953097326328906e-02
0.00000000000000000e+00
0.00000000000000000e+00
2.66773562575804979e-02
5.31254313283454280e-02
7.91089954500526493e-02
1.04381865579427136e-01
1.28683694699230078e-01
1.51739224856922233e-01
1.73260420842823087e-01
1.92951597793825980e-01
2.10517329615701659e-01
2.25672608563417698e-01
2.38154453787284337e-01
2.47733970043428009e-01
2.54227762482637454e-01
2.57507634469070823e-01
2.57507634469069935e-01
2.54227762482635677e-01
2.47733970043426316e-01
2.38154453787282450e-01
2.25672608563414562e-01
2.10517329615698218e-01
1.92951597793823815e-01
1.73260420842821394e-01
1.51739224856920984e-01
1.28683694699229273e-01
1.04381865579426761e-01
7.91089954500519693e-02
5.31254313283451504e-02
2.66773562575804840e-02
0.00000000000000000e+00
0.00000000000000000e+00
2.43602348226656731e-02
4.85101418812373397e-02
7.22340695486827639e-02
9.53065701017167116e-02
1.17489545874788354e-01
1.38531617281965863e-01
1.58170087607064719e-01
1.76135605232891401e-01
1.92159329526895434e-01
2.05982121379931216e-01
2.17365034183341743e-01
2.26100204460938453e-01
2.32021156171292126e-01
2.35011552200783097e-01
2.35011552200782792e-01
2.32021156171290821e-01
2.26100204460937537e-01
2.17365034183339884e-01
2.05982121379928801e-01
1.92159329526892519e-01
1.76135605232888931e-01
1.58170087607062443e-01
1.38531617281964364e-01
1.17489545874787271e-01
9.53065701017157818e-02
7.22340695486820977e-02
4.85101418812371177e-02
2.43602348226654962e-02
0.00000000000000000e+00
0.00000000000000000e+00
2.17891114170011869e-02
4.33891982693152198e-02
6.46065747930632955e-02
8.52389849858151555e-02
1.05073122646720835e-01
1.23884112760153028e-01
1.41437284162803156e-01
1.57492320972503264e-01
1.71809620230582577e-01
1.84158431666728933e-01
1.94326139557087746e-01
2.02127891464615572e-01
2.07415704114761928e-01
2.10086194372166579e-01
2.10086194372166413e-01
2.07415704114761651e-01
2.02127891464615822e-01
1.94326139557087385e-01
1.84158431666727795e-01
1.71809620230580939e-01
1.57492320972501071e-01
1.41437284162801408e-01
1.23884112760151668e-01
1.05073122646719586e-01
8.52389849858141979e-02
6.46065747930625323e-02
4.33891982693149214e-02
2.17891114170010655e-02
0.00000000000000000e+00
0.00000000000000000e+00
1.90087035445307452e-02
3.78517260904851910e-02
5.63594076442155006e-02
7.43547780725811319e-02
9.16514566121735264e-02
1.08053239853180980e-01
1.23355661370676162e-01
1.37349597110091065e-01
1.49826766694079433e-01
1.60586764469229426e-01
1.69445068661588705e-01
1.76241344005228423e-01
1.80847289623497276e-01
1.83173299618247631e-01
1.83173299618247964e-01
1.80847289623497637e-01
1.76241344005228978e-01
1.69445068661588788e-01
1.60586764469229065e-01
1.49826766694077768e-01
1.37349597110089233e-01
1.23355661370674607e-01
1.08053239853180050e-01
9.16514566121723606e-02
7.43547780725804380e-02
5.63594076442147929e-02
3.78517260904847053e-02
1.90087035445305474e-02
0.00000000000000000e+00
0.00000000000000000e+00
1.60612725770542981e-02
3.19819326138943219e-02
4.76180755012589260e-02
6.28197532111070267e-02
7.74292499025011488e-02
9.12807660969104373e-02
1.04201746963679967e-01
1.16015915578059514e-01
1.26547885124456222e-01
1.35629043689266898e-01
1.43104250934321470e-01
1.48838775452431210e-01
1.52724849025296538e-01
1.54687227421852896e-01
1.54687227421853091e-01
1.52724849025297038e-01
1.48838775452431404e-01
1.43104250934321331e-01
1.35629043689266537e-01
1.26547885124455306e-01
1.16015915578058376e-01
1.04201746963678663e-01
9.12807660969093548e-02
7.74292499025002190e-02
6.28197532111063606e-02
4.76180755012582946e-02
3.19819326138938570e-02
1.60612725770540796e-02
0.00000000000000000e+00
0.00000000000000000e+00
1.29851802466079032e-02
2.58562283214234800e-02
3.84964011684516202e-02
5.07841662776045560e-02
6.25918440452421510e-02
7.37853758116391589e-02
8.42254053129739139e-02
9.37697214926145467e-02
1.02276961206193895e-01
1.09611326353539318e-01
1.15647946870582247e-01
1.20278433050831551e-01
1.23416118978515260e-01
1.25000509824811867e-01
1.25000509824812034e-01
1.23416118978515441e-01
1.20278433050831648e-01
1.15647946870582385e-01
1.09611326353539276e-01
1.02276961206193603e-01
9.37697214926138251e-02
8.42254053129730534e-02
7.37853758116386454e-02
6.25918440452415542e-02
5.07841662776042507e-02
3.84964011684513704e-02
2.58562283214232996e-02
1.29851802466078182e-02
0.00000000000000000e+00
0.00000000000000000e+00
9.81410715613991597e-03
1.95416700857574607e-02
2.90942032596875309e-02
3.83796622216503527e-02
4.73014405161208407e-02
5.57582091089335874e-02
6.36447384958191142e-02
7.08537389443314874e-02
7.72786424556211188e-02
8.28171423256668926e-02
8.73752142123930819e-02
9.08712769910479529e-02
9.32401206896885798e-02
9.44362371615985741e-02
9.44362371615988377e-02
9.32401206896888435e-02
9.08712769910479806e-02
8.73752142123930542e-02
8.28171423256669481e-02
7.72786424556209939e-02
7.08537389443310850e-02
6.36447384958187257e-02
5.57582091089333098e-02
4.73014405161206533e-02
3.83796622216502348e-02
2.90942032596874685e-02
1.95416700857574399e-02
9.81410715613977545e-03
0.00000000000000000e+00
0.00000000000000000e+00
6.57695828003673853e-03
1.30957754596303013e-02
1.94970256017364986e-02
2.57189284640439893e-02
3.16966888955698897e-02
3.73623966508280433e-02
4.26455797199184750e-02
4.74744345315070079e-02
5.17776819598957244e-02
5.54869264559570419e-02
5.85393345216913760e-02
6.08804052016183733e-02
6.24665847551512041e-02
6.32674833166557704e-02
6.32674833166558953e-02
6.24665847551515649e-02
6.08804052016183941e-02
5.85393345216915356e-02