<?xml version="1.0"?>
<VTKFile type="StructuredGrid">
<StructuredGrid WholeExtent="0 29 0 29 0 0 ">
<Piece Extent="0 29 0 29 0 0 ">
<Points>
<DataArray type="Float64" Name="coordinate" NumberOfComponents="3" format="ascii">
-2.00000000000000000e+00 -2.00000000000000000e+00 0 
-1.86206896551724133e+00 -2.00000000000000000e+00 0 
-1.72413793103448265e+00 -2.00000000000000000e+00 0 
-1.58620689655172420e+00 -2.00000000000000000e+00 0 
-1.44827586206896552e+00 -2.00000000000000000e+00 0 
-1.31034482758620685e+00 -2.00000000000000000e+00 0 
-1.17241379310344840e+00 -2.00000000000000000e+00 0 
-1.03448275862068950e+00 -2.00000000000000000e+00 0 
-8.96551724137931050e-01 -2.00000000000000000e+00 0 
-7.58620689655172376e-01 -2.00000000000000000e+00 0 
-6.20689655172413701e-01 -2.00000000000000000e+00 0 
-4.82758620689655249e-01 -2.00000000000000000e+00 0 
-3.44827586206896575e-01 -2.00000000000000000e+00 0 
-2.06896551724137900e-01 -2.00000000000000000e+00 0 
-6.89655172413792261e-02 -2.00000000000000000e+00 0 
6.89655172413794482e-02 -2.00000000000000000e+00 0 
2.06896551724137900e-01 -2.00000000000000000e+00 0 
3.44827586206896353e-01 -2.00000000000000000e+00 0 
4.82758620689655249e-01 -2.00000000000000000e+00 0 
6.20689655172413701e-01 -2.00000000000000000e+00 0 
7.58620689655172598e-01 -2.00000000000000000e+00 0 
8.96551724137931050e-01 -2.00000000000000000e+00 0 
1.03448275862068950e+00 -2.00000000000000000e+00 0 
1.17241379310344840e+00 -2.00000000000000000e+00 0 
1.31034482758620685e+00 -2.00000000000000000e+00 0 
1.44827586206896530e+00 -2.00000000000000000e+00 0 
1.58620689655172420e+00 -2.00000000000000000e+00 0 
1.72413793103448265e+00 -2.00000000000000000e+00 0 
1.86206896551724155e+00 -2.00000000000000000e+00 0 
2.00000000000000000e+00 -2.00000000000000000e+00 0 
-2.00000000000000000e+00 -1.86206896551724133e+00 0 
-1.86206896551724133e+00 -1.86206896551724133e+00 0 
-1.72413793103448265e+00 -1.86206896551724133e+00 0 
-1.58620689655172420e+00 -1.86206896551724133e+00 0 
-1.44827586206896552e+00 -1.86206896551724133e+00 0 
-1.31034482758620685e+00 -1.86206896551724133e+00 0 
-1.17241379310344840e+00 -1.86206896551724133e+00 0 
-1.03448275862068950e+00 -1.86206896551724133e+00 0 
-8.96551724137931050e-01 -1.86206896551724133e+00 0 
-7.58620689655172376e-01 -1.86206896551724133e+00 0 
-6.20689655172413701e-01 -1.86206896551724133e+00 0 
-4.82758620689655249e-01 -1.86206896551724133e+00 0 
-3.44827586206896575e-01 -1.86206896551724133e+00 0 
-2.06896551724137900e-01 -1.86206896551724133e+00 0 
-6.89655172413792261e-02 -1.86206896551724133e+00 0 
6.89655172413794482e-02 -1.86206896551724133e+00 0 
2.06896551724137900e-01 -1.86206896551724133e+00 0 
3.44827586206896353e-01 -1.86206896551724133e+00 0 
4.82758620689655249e-01 -1.86206896551724133e+00 0 
6.20689655172413701e-01 -1.86206896551724133e+00 0 
7.58620689655172598e-01 -1.86206896551724133e+00 0 
8.96551724137931050e-01 -1.86206896551724133e+00 0 
1.03448275862068950e+00 -1.86206896551724133e+00 0 
1.17241379310344840e+00 -1.86206896551724133e+00 0 
1.31034482758620685e+00 -1.86206896551724133e+00 0 
1.44827586206896530e+00 -1.86206896551724133e+00 0 
1.58620689655172420e+00 -1.86206896551724133e+00 0 
1.72413793103448265e+00 -1.86206896551724133e+00 0 
1.86206896551724155e+00 -1.86206896551724133e+00 0 
2.00000000000000000e+00 -1.86206896551724133e+00 0 
-2.00000000000000000e+00 -1.72413793103448265e+00 0 
-1.86206896551724133e+00 -1.72413793103448265e+00 0 
-1.72413793103448265e+00 -1.72413793103448265e+00 0 
-1.58620689655172420e+00 -1.72413793103448265e+00 0 
-1.44827586206896552e+00 -1.72413793103448265e+00 0 
-1.31034482758620685e+00 -1.72413793103448265e+00 0 
-1.17241379310344840e+00 -1.72413793103448265e+00 0 
-1.03448275862068950e+00 -1.72413793103448265e+00 0 
-8.96551724137931050e-01 -1.72413793103448265e+00 0 
-7.58620689655172376e-01 -1.72413793103448265e+00 0 
-6.20689655172413701e-01 -1.72413793103448265e+00 0 
-4.82758620689655249e-01 -1.72413793103448265e+00 0 
-3.44827586206896575e-01 -1.72413793103448265e+00 0 
-2.06896551724137900e-01 -1.72413793103448265e+00 0 
-6.89655172413792261e-02 -1.72413793103448265e+00 0 
6.89655172413794482e-02 -1.72413793103448265e+00 0 
2.06896551724137900e-01 -1.72413793103448265e+00 0 
3.44827586206896353e-01 -1.72413793103448265e+00 0 
4.82758620689655249e-01 -1.72413793103448265e+00 0 
6.20689655172413701e-01 -1.72413793103448265e+00 0 
7.58620689655172598e-01 -1.72413793103448265e+00 0 
8.96551724137931050e-01 -1.72413793103448265e+00 0 
1.03448275862068950e+00 -1.72413793103448265e+00 0 
1.17241379310344840e+00 -1.72413793103448265e+00 0 
1.31034482758620685e+00 -1.72413793103448265e+00 0 
1.44827586206896530e+00 -1.72413793103448265e+00 0 
1.58620689655172420e+00 -1.72413793103448265e+00 0 
1.72413793103448265e+00 -1.72413793103448265e+00 0 
1.86206896551724155e+00 -1.72413793103448265e+00 0 
2.00000000000000000e+00 -1.72413793103448265e+00 0 
-2.00000000000000000e+00 -1.58620689655172420e+00 0 
-1.86206896551724133e+00 -1.58620689655172420e+00 0 
-1.72413793103448265e+00 -1.58620689655172420e+00 0 
-1.58620689655172420e+00 -1.58620689655172420e+00 0 
-1.44827586206896552e+00 -1.58620689655172420e+00 0 
-1.31034482758620685e+00 -1.58620689655172420e+00 0 
-1.17241379310344840e+00 -1.58620689655172420e+00 0 
-1.03448275862068950e+00 -1.58620689655172420e+00 0 
-8.96551724137931050e-01 -1.58620689655172420e+00 0 
-7.58620689655172376e-01 -1.58620689655172420e+00 0 
-6.20689655172413701e-01 -1.58620689655172420e+00 0 
-4.82758620689655249e-01 -1.58620689655172420e+00 0 
-3.44827586206896575e-01 -1.58620689655172420e+00 0 
-2.06896551724137900e-01 -1.58620689655172420e+00 0 
-6.89655172413792261e-02 -1.58620689655172420e+00 0 
6.89655172413794482e-02 -1.58620689655172420e+00 0 
2.06896551724137900e-01 -1.58620689655172420e+00 0 
3.44827586206896353e-01 -1.58620689655172420e+00 0 
4.82758620689655249e-01 -1.58620689655172420e+00 0 
6.20689655172413701e-01 -1.58620689655172420e+00 0 
7.58620689655172598e-01 -1.58620689655172420e+00 0 
8.96551724137931050e-01 -1.58620689655172420e+00 0 
1.03448275862068950e+00 -1.58620689655172420e+00 0 
1.17241379310344840e+00 -1.58620689655172420e+00 0 
1.31034482758620685e+00 -1.58620689655172420e+00 0 
1.44827586206896530e+00 -1.58620689655172420e+00 0 
1.58620689655172420e+00 -1.58620689655172420e+00 0 
1.72413793103448265e+00 -1.58620689655172420e+00 0 
1.86206896551724155e+00 -1.58620689655172420e+00 0 
2.00000000000000000e+00 -1.58620689655172420e+00 0 
-2.00000000000000000e+00 -1.44827586206896552e+00 0 
-1.86206896551724133e+00 -1.44827586206896552e+00 0 
-1.72413793103448265e+00 -1.44827586206896552e+00 0 
-1.58620689655172420e+00 -1.44827586206896552e+00 0 
-1.44827586206896552e+00 -1.44827586206896552e+00 0 
-1.31034482758620685e+00 -1.44827586206896552e+00 0 
-1.17241379310344840e+00 -1.44827586206896552e+00 0 
-1.03448275862068950e+00 -1.44827586206896552e+00 0 
-8.96551724137931050e-01 -1.44827586206896552e+00 0 
-7.58620689655172376e-01 -1.44827586206896552e+00 0 
-6.20689655172413701e-01 -1.44827586206896552e+00 0 
-4.82758620689655249e-01 -1.44827586206896552e+00 0 
-3.44827586206896575e-01 -1.44827586206896552e+00 0 
-2.06896551724137900e-01 -1.44827586206896552e+00 0 
-6.89655172413792261e-02 -1.44827586206896552e+00 0 
6.89655172413794482e-02 -1.44827586206896552e+00 0 
2.06896551724137900e-01 -1.44827586206896552e+00 0 
3.44827586206896353e-01 -1.44827586206896552e+00 0 
4.82758620689655249e-01 -1.44827586206896552e+00 0 
6.20689655172413701e-01 -1.44827586206896552e+00 0 
7.58620689655172598e-01 -1.44827586206896552e+00 0 
8.96551724137931050e-01 -1.44827586206896552e+00 0 
1.03448275862068950e+00 -1.44827586206896552e+00 0 
1.17241379310344840e+00 -1.44827586206896552e+00 0 
1.31034482758620685e+00 -1.44827586206896552e+00 0 
1.44827586206896530e+00 -1.44827586206896552e+00 0 
1.58620689655172420e+00 -1.44827586206896552e+00 0 
1.72413793103448265e+00 -1.44827586206896552e+00 0 
1.86206896551724155e+00 -1.44827586206896552e+00 0 
2.00000000000000000e+00 -1.44827586206896552e+00 0 
-2.00000000000000000e+00 -1.31034482758620685e+00 0 
-1.86206896551724133e+00 -1.31034482758620685e+00 0 
-1.72413793103448265e+00 -1.31034482758620685e+00 0 
-1.58620689655172420e+00 -1.31034482758620685e+00 0 
-1.44827586206896552e+00 -1.31034482758620685e+00 0 
-1.31034482758620685e+00 -1.31034482758620685e+00 0 
-1.17241379310344840e+00 -1.31034482758620685e+00 0 
-1.03448275862068950e+00 -1.31034482758620685e+00 0 
-8.96551724137931050e-01 -1.31034482758620685e+00 0 
-7.58620689655172376e-01 -1.31034482758620685e+00 0 
-6.20689655172413701e-01 -1.31034482758620685e+00 0 
-4.82758620689655249e-01 -1.31034482758620685e+00 0 
-3.44827586206896575e-01 -1.31034482758620685e+00 0 
-2.06896551724137900e-01 -1.31034482758620685e+00 0 
-6.89655172413792261e-02 -1.31034482758620685e+00 0 
6.89655172413794482e-02 -1.31034482758620685e+00 0 
2.06896551724137900e-01 -1.31034482758620685e+00 0 
3.44827586206896353e-01 -1.31034482758620685e+00 0 
4.82758620689655249e-01 -1.31034482758620685e+00 0 
6.20689655172413701e-01 -1.31034482758620685e+00 0 
7.58620689655172598e-01 -1.31034482758620685e+00 0 
8.96551724137931050e-01 -1.31034482758620685e+00 0 
1.03448275862068950e+00 -1.31034482758620685e+00 0 
1.17241379310344840e+00 -1.31034482758620685e+00 0 
1.31034482758620685e+00 -1.31034482758620685e+00 0 
1.44827586206896530e+00 -1.31034482758620685e+00 0 
1.58620689655172420e+00 -1.31034482758620685e+00 0 
1.72413793103448265e+00 -1.31034482758620685e+00 0 
1.86206896551724155e+00 -1.31034482758620685e+00 0 
2.00000000000000000e+00 -1.31034482758620685e+00 0 
-2.00000000000000000e+00 -1.17241379310344840e+00 0 
-1.86206896551724133e+00 -1.17241379310344840e+00 0 
-1.72413793103448265e+00 -1.17241379310344840e+00 0 
-1.58620689655172420e+00 -1.17241379310344840e+00 0 
-1.44827586206896552e+00 -1.17241379310344840e+00 0 
-1.31034482758620685e+00 -1.17241379310344840e+00 0 
[...]
<PointData>
<DataArray type="Float64" Name="gaussian_hill" NumberOfComponents="1" format="ascii">
0.00000000000000000e+00
0.00000000000000000e+00
0.00000000000000000e+00
0.00000000000000000e+00
0.00000000000000000e+00
0.00000000000000000e+00
0.00000000000000000e+00
0.00000000000000000e+00
0.00000000000000000e+00
0.00000000000000000e+00
0.00000000000000000e+00
0.00000000000000000e+00
0.00000000000000000e+00
0.00000000000000000e+00
0.00000000000000000e+00
0.00000000000000000e+00
0.00000000000000000e+00
0.00000000000000000e+00
0.00000000000000000e+00
0.00000000000000000e+00
0.00000000000000000e+00
0.00000000000000000e+00
0.00000000000000000e+00
0.00000000000000000e+00
0.00000000000000000e+00
0.00000000000000000e+00
0.00000000000000000e+00
0.00000000000000000e+00
0.00000000000000000e+00
0.00000000000000000e+00
0.00000000000000000e+00
2.10618037721661475e-03
4.25708330309122317e-03
6.49224437246195395e-03
8.83924180453636923e-03
1.13075385573920394e-02
1.38837296743796069e-02
1.65288712322207432e-02
1.91784505224627290e-02
2.17453697701485947e-02
2.41260084225933986e-02
2.62090062371621892e-02
2.78859330910874725e-02
2.90625854790379744e-02
2.96693897767560250e-02
2.96693897767559348e-02
2.90625854790379327e-02
2.78859330910873789e-02
2.62090062371621788e-02
2.41260084225933327e-02
2.17453697701486155e-02
1.91784505224627221e-02
1.65288712322208160e-02
1.38837296743796346e-02
1.13075385573921071e-02
8.83924180453639005e-03
6.49224437246200253e-03
4.25708330309123011e-03
2.10618037721662819e-03
0.00000000000000000e+00
0.00000000000000000e+00
4.37720121337446897e-03
8.85110500619924051e-03
1.35079424326620939e-02
1.84087180306706476e-02
2.35758210916800423e-02
2.89826763688127778e-02
3.45478419065126316e-02
4.01347513234709893e-02
4.55579336345279043e-02
5.05959007191228854e-02
5.50099771633410645e-02
5.85672977779284551e-02
6.10652479090827982e-02
6.23540317789846588e-02
6.23540317789845616e-02
6.10652479090825415e-02
5.85672977779285037e-02
5.50099771633409396e-02
5.05959007191229340e-02
4.55579336345278210e-02
4.01347513234710102e-02
3.45478419065127357e-02
2.89826763688129374e-02
2.35758210916801117e-02
1.84087180306707551e-02
1.35079424326621303e-02
8.85110500619927694e-03
4.37720121337448372e-03
0.00000000000000000e+00
0.00000000000000000e+00
6.97427928174332822e-03
1.41119122019418269e-02
2.15605658727708697e-02
2.94267969123910185e-02
3.77532011192183298e-02
4.65007373397568827e-02
5.55384374299604106e-02
6.46424903410029866e-02
7.35061824568634115e-02
8.17611438732055579e-02
8.90087980778991733e-02
9.48590866409621675e-02
9.89718581962200500e-02
1.01095241475547243e-01
1.01095241475547007e-01
9.89718581962199806e-02
9.48590866409618483e-02
8.90087980778990207e-02
8.17611438732052248e-02
7.35061824568632866e-02
6.46424903410028340e-02
5.55384374299605771e-02
4.65007373397570145e-02
3.77532011192185171e-02
2.94267969123910914e-02
2.15605658727709773e-02
1.41119122019418650e-02
6.97427928174337332e-03
0.00000000000000000e+00
0.00000000000000000e+00
1.00481014875538448e-02
2.03484050615292331e-02
3.11328847740586293e-02
4.25726699015565452e-02
5.47422046435223839e-02
6.75915693857604971e-02
8.09299983606213136e-02
9.44235881502473590e-02
1.07609633014439904e-01
1.19928529478328952e-01
1.30771778238042480e-01
1.39541684469842275e-01
1.45715607777887446e-01
1.48905819603882356e-01
1.48905819603881995e-01
1.45715607777886946e-01
1.39541684469841609e-01
1.30771778238041869e-01
1.19928529478328549e-01
1.07609633014439557e-01
9.44235881502473590e-02
8.09299983606213691e-02
6.75915693857607747e-02
5.47422046435224255e-02
4.25726699015567048e-02
3.11328847740587576e-02
2.03484050615293753e-02
1.00481014875538899e-02
0.00000000000000000e+00
0.00000000000000000e+00
1.37265074360344071e-02
2.78234376649162327e-02
4.26383552251244774e-02
5.84333092446040619e-02
7.53310701060369153e-02
9.32738130281230565e-02
1.11997965289722834e-01
1.31029477475164108e-01
1.49703348134746062e-01
1.67209197461073822e-01
1.82661097998253197e-01
1.95185382758060799e-01
2.04015853874107173e-01
2.08582943639827878e-01
2.08582943639827573e-01
2.04015853874107145e-01
1.95185382758059883e-01
1.82661097998252780e-01
1.67209197461073156e-01
1.49703348134745590e-01
1.31029477475163858e-01
1.11997965289723084e-01
9.32738130281229733e-02
7.53310701060371096e-02
5.84333092446043811e-02
4.26383552251247688e-02
2.78234376649164027e-02
1.37265074360345372e-02
0.00000000000000000e+00
0.00000000000000000e+00
1.80951755076204854e-02
3.67142019370891026e-02
5.63592912056643802e-02
7.74167395317468671e-02
1.00078943658502520e-01
1.24284963225891359e-01
1.49683601184289972e-01
1.75624804794822564e-01
2.01185193242711335e-01
2.25230869586499072e-01
2.46515520685809092e-01
2.63805165291662924e-01
2.76014437858797146e-01
2.82334877327254263e-01
2.82334877327254541e-01
2.76014437858797479e-01
2.63805165291662591e-01
2.46515520685808232e-01
2.25230869586498489e-01
2.01185193242710864e-01
1.75624804794822564e-01
1.49683601184289722e-01
1.24284963225891637e-01
1.00078943658502797e-01
7.74167395317472418e-02
5.63592912056646023e-02
3.67142019370894634e-02
1.80951755076206276e-02
0.00000000000000000e+00
0.00000000000000000e+00
2.31718453567608292e-02
4.70591691868837217e-02
7.23633211468757559e-02
9.96333081571081358e-02
1.29156261866135269e-01
1.60874866331585847e-01
1.94335155823950806e-01
2.28672286216678317e-01
2.62642773184269651e-01
2.94708370792247043e-01
3.23169588264711982e-01
3.46337339384791110e-01
3.62721820889552182e-01
3.71211183695797031e-01
3.71211183695796643e-01
3.62721820889551905e-01
3.46337339384790110e-01
3.23169588264710872e-01
2.94708370792245988e-01
2.62642773184269096e-01
2.28672286216677595e-01
1.94335155823950667e-01
1.60874866331586153e-01
1.29156261866135741e-01
9.96333081571086632e-02
7.23633211468763526e-02
4.70591691868840478e-02
2.31718453567610547e-02
0.00000000000000000e+00
0.00000000000000000e+00
2.88777813482119124e-02
5.86992183409322382e-02
9.04100139228923294e-02
1.24761515760040048e-01
1.62162032152142949e-01
2.02566164001873605e-01
2.45403773446008361e-01
2.89558196916239574e-01
3.33405661710386159e-01
3.74923845366193387e-01
4.11867847749396110e-01
4.41998737747349102e-01
4.63336712032527798e-01
4.74401643722155097e-01
4.74401643722154931e-01
4.63336712032526687e-01
4.41998737747347936e-01
4.11867847749393889e-01
3.74923845366191721e-01
3.33405661710384604e-01
2.89558196916237354e-01
2.45403773446007778e-01
2.02566164001873938e-01
1.62162032152143115e-01
1.24761515760040631e-01
9.04100139228928151e-02
5.86992183409327309e-02
2.88777813482121032e-02
0.00000000000000000e+00
0.00000000000000000e+00
3.50139067904465737e-02
7.12282762697811489e-02
1.09871841762567646e-01
1.51932791982507809e-01
1.97964280340726329e-01
2.47941589428990472e-01
3.01169274400104825e-01
3.56250008374738414e-01
4.11131287548794244e-01
4.63241439759405571e-01
5.09713802860102927e-01
5.47680556975383426e-01
5.74600116229368130e-01
5.88569433964624800e-01
5.88569433964625133e-01
5.74600116229367242e-01
5.47680556975380761e-01
5.09713802860099374e-01
4.63241439759402684e-01
4.11131287548791080e-01
3.56250008374734917e-01
3.01169274400102771e-01
2.47941589428989945e-01
1.97964280340726856e-01
1.51932791982508641e-01
1.09871841762568381e-01
7.12282762697815930e-02
3.50139067904467402e-02
0.00000000000000000e+00
0.00000000000000000e+00
4.12519112243674574e-02
8.39747198224016361e-02
1.29703201043293692e-01
1.79683726376160896e-01
2.34629828914073219e-01
2.94545002800987055e-01
3.58606282859859571e-01
4.25122430261632545e-01
4.91587603068475210e-01
5.54846025791476682e-01
6.11367426840869088e-01
6.57610916422484149e-01
6.90432456969003239e-01
7.07474846056101558e-01
7.07474846056102669e-01
6.90432456969002906e-01
6.57610916422481928e-01
6.11367426840865757e-01
5.54846025791473685e-01
4.91587603068470380e-01
4.25122430261628215e-01
3.58606282859857739e-01
2.94545002800986999e-01
2.34629828914073080e-01
1.79683726376161285e-01
1.29703201043293831e-01
8.39747198224018027e-02
4.12519112243674088e-02
0.00000000000000000e+00
0.00000000000000000e+00
4.71506201386654097e-02
9.60347509572060110e-02
1.48491338753333452e-01
2.06024931611161699e-01
2.69511285664932654e-01
3.38986404641459849e-01
4.13506764278821826e-01
4.91096492494485892e-01
5.68807232767878923e-01
6.42910482111119341e-01
7.09223278697380888e-01
7.63541257028569786e-01
8.02125554855249279e-01
8.22170068584996305e-01
8.22170068584996638e-01
8.02125554855252609e-01
7.63541257028569120e-01
7.09223278697379889e-01
6.42910482111116011e-01
5.68807232767875370e-01
4.91096492494481340e-01
4.13506764278819439e-01
3.38986404641458794e-01
2.69511285664932598e-01
2.06024931611161005e-01
1.48491338753333341e-01
9.60347509572059971e-02
4.71506201386654444e-02
0.00000000000000000e+00
0.00000000000000000e+00
5.22033353821005283e-02
1.06369503221076828e-01
1.64608176998990857e-01
2.28654712091352380e-01
2.99531077871018625e-01
3.77305155237158074e-01
4.60930238245585544e-01
5.48182145727622028e-01
6.35724099167291223e-01
7.19323127026394449e-01
7.94219999500859086e-01
8.55623550668705879e-01
8.99268179909817444e-01
9.21949928078648950e-01
9.21949928078649061e-01
8.99268179909818333e-01
8.55623550668705657e-01
7.94219999500859641e-01
7.19323127026392117e-01
6.35724099167288670e-01
5.48182145727617365e-01
4.60930238245581159e-01
3.77305155237156076e-01
2.99531077871017626e-01
2.28654712091352158e-01
1.64608176998990191e-01
1.06369503221077036e-01
5.22033353821004312e-02
0.00000000000000000e+00
0.00000000000000000e+00
5.59127506324766377e-02
1.13958887882025378e-01
1.76452311876701823e-01
2.45303009282745593e-01
3.21644179906914962e-01
4.05569276407626522e-01
4.95955916245329531e-01
5.90395255418009857e-01
6.85260384271992873e-01
7.75940587180409036e-01
8.57244399167858218e-01
9.23939981247479891e-01
9.71365815848149516e-01
9.96018720347599085e-01
9.96018720347597641e-01
9.71365815848149960e-01
9.23939981247477560e-01
8.57244399167856663e-01
7.75940587180407371e-01
6.85260384271990763e-01
5.90395255418004417e-01
4.95955916245324535e-01
4.05569276407624246e-01
3.21644179906913907e-01
2.45303009282745982e-01
1.76452311876701767e-01
1.13958887882025489e-01
5.59127506324765752e-02
0.00000000000000000e+00
0.00000000000000000e+00
5.78790945232541820e-02
1.17982663894302203e-01
1.82734638137006383e-01
2.54139250113605719e-01
3.33389916816781540e-01
4.20594348059677159e-01
5.14590074861879798e-01
6.12869609219860667e-01
7.11650650350432956e-01
8.06119867872273743e-01
8.90853720531620263e-01
9.60383589997338305e-01
1.00983511542102899e+00
1.03554419522220509e+00
1.03554419522220753e+00
1.00983511542103188e+00
9.60383589997337750e-01
8.90853720531618487e-01
8.06119867872269968e-01
7.11650650350429848e-01
6.12869609219854783e-01
5.14590074861876356e-01
4.20594348059675438e-01
3.33389916816780929e-01
2.54139250113605830e-01
1.82734638137006355e-01
1.17982663894302217e-01
5.78790945232541196e-02
0.00000000000000000e+00
0.00000000000000000e+00
5.78790945232541612e-02
1.17982663894302120e-01
1.82734638137006467e-01
2.54139250113605941e-01
3.33389916816780651e-01
4.20594348059676382e-01
5.14590074861878688e-01
6.12869609219858669e-01
7.11650650350434510e-01
8.06119867872275853e-01
8.90853720531622373e-01
9.60383589997340414e-01
1.00983511542103033e+00
1.03554419522220575e+00
1.03554419522220376e+00
1.00983511542102899e+00
9.60383589997337972e-01
8.90853720531618709e-01
8.06119867872268303e-01
7.11650650350429292e-01
6.12869609219855449e-01
5.14590074861876134e-01
4.20594348059674716e-01
3.33389916816780096e-01
2.54139250113605331e-01
1.82734638137006161e-01
1.17982663894302314e-01
5.78790945232541959e-02
0.00000000000000000e+00
0.00000000000000000e+00
5.59127506324765128e-02
1.13958887882025364e-01
1.76452311876701379e-01
2.45303009282745399e-01
3.21644179906914129e-01
4.05569276407625079e-01
4.95955916245327921e-01
5.90395255418007525e-01
6.85260384271994094e-01
7.75940587180412700e-01
8.57244399167862658e-01
9.23939981247483000e-01
9.71365815848149405e-01
9.96018720347595421e-01
9.96018720347598530e-01
9.71365815848149960e-01
9.23939981247480668e-01
8.57244399167856552e-01
7.75940587180407260e-01
6.85260384271989875e-01
5.90395255418005083e-01
4.95955916245324924e-01
4.05569276407622858e-01
3.21644179906913463e-01
2.45303009282744872e-01
1.76452311876701656e-01
1.13958887882025781e-01
5.59127506324767140e-02
0.00000000000000000e+00
0.00000000000000000e+00
5.22033353821002299e-02
1.06369503221076689e-01
1.64608176998990136e-01
2.28654712091352158e-01
2.99531077871017903e-01
3.77305155237157297e-01
4.60930238245582435e-01
5.48182145727618697e-01
6.35724099167290335e-01
7.19323127026395226e-01
7.94219999500863638e-01
8.55623550668705879e-01
8.99268179909814225e-01
9.21949928078645620e-01
9.21949928078647396e-01
8.99268179909817666e-01
8.55623550668707988e-01
7.94219999500861085e-01
7.19323127026393561e-01
6.35724099167289780e-01
5.48182145727617032e-01
4.60930238245581048e-01
3.77305155237155632e-01
2.99531077871017848e-01
2.28654712091351880e-01
1.64608176998990136e-01
1.06369503221076994e-01
5.22033353821005908e-02
0.00000000000000000e+00
0.00000000000000000e+00
4.71506201386654097e-02
9.60347509572058999e-02
1.48491338753333091e-01
2.06024931611161366e-01
2.69511285664932432e-01
3.38986404641458905e-01
4.13506764278819605e-01
4.91096492494483061e-01
5.68807232767877147e-01
6.42910482111118897e-01
7.09223278697381887e-01
7.63541257028566567e-01
8.02125554855248502e-01
8.22170068584992753e-01
8.22170068584995084e-01
8.02125554855250722e-01
7.63541257028573450e-01
7.09223278697382220e-01
6.42910482111119119e-01
5.68807232767877036e-01
4.91096492494483061e-01
4.13506764278818828e-01
3.38986404641459182e-01
2.69511285664932654e-01
2.06024931611161810e-01
1.48491338753333368e-01
9.60347509572061775e-02
4.71506201386654722e-02
0.00000000000000000e+00
0.00000000000000000e+00
4.12519112243674366e-02
8.39747198224015390e-02
1.29703201043293442e-01
1.79683726376160757e-01
2.34629828914072663e-01
2.94545002800986000e-01
3.58606282859857350e-01
4.25122430261630158e-01
4.91587603068472268e-01
5.54846025791474573e-01
6.11367426840866646e-01
6.57610916422480929e-01
6.90432456968999353e-01
7.07474846056098228e-01
7.07474846056098672e-01
6.90432456969002351e-01
6.57610916422486036e-01
6.11367426840870754e-01
5.54846025791477571e-01
4.91587603068473378e-01
4.25122430261631490e-01
3.58606282859859349e-01
2.94545002800987110e-01
2.34629828914073330e-01
1.79683726376161396e-01
1.29703201043294081e-01
8.39747198224019276e-02
4.12519112243675545e-02
0.00000000000000000e+00
0.00000000000000000e+00
3.50139067904466292e-02
7.12282762697811905e-02
1.09871841762567812e-01
1.51932791982507809e-01
1.97964280340726051e-01
2.47941589428989528e-01
3.01169274400102771e-01
3.56250008374736971e-01
4.11131287548792135e-01
4.63241439759403184e-01
5.09713802860100706e-01
5.47680556975380428e-01
5.74600116229366020e-01
5.88569433964622801e-01
5.88569433964622246e-01
5.74600116229367019e-01
5.47680556975382760e-01
5.09713802860103815e-01
4.63241439759405182e-01
4.11131287548794300e-01
3.56250008374738802e-01
3.01169274400105047e-01
2.47941589428990888e-01
1.97964280340726884e-01
1.51932791982508780e-01
1.09871841762568340e-01
7.12282762697815097e-02
3.50139067904467749e-02
0.00000000000000000e+00
0.00000000000000000e+00
2.88777813482120546e-02
5.86992183409324048e-02
9.04100139228925792e-02
1.24761515760040215e-01
1.62162032152142727e-01
2.02566164001873827e-01
2.45403773446008028e-01
2.89558196916238908e-01
3.33405661710384604e-01
3.74923845366192221e-01
4.11867847749395111e-01
4.41998737747348880e-01
4.63336712032527021e-01
4.74401643722154875e-01
4.74401643722153932e-01
4.63336712032526632e-01
4.41998737747349102e-01
4.11867847749396443e-01
3.74923845366194886e-01
3.33405661710387102e-01
2.89558196916240518e-01
2.45403773446009443e-01
2.02566164001874799e-01
1.62162032152143143e-01
1.24761515760040603e-01
9.04100139228928845e-02
5.86992183409326893e-02
2.88777813482121136e-02
0.00000000000000000e+00
0.00000000000000000e+00
2.31718453567609610e-02
4.70591691868838743e-02
7.23633211468761167e-02
9.96333081571083995e-02
1.29156261866135436e-01
1.60874866331586014e-01
1.94335155823950889e-01
2.28672286216678317e-01
2.62642773184269318e-01
2.94708370792246710e-01
3.23169588264712038e-01
3.46337339384791165e-01
3.62721820889552460e-01
3.71211183695797531e-01
3.71211183695796532e-01
3.62721820889551516e-01
3.46337339384791165e-01
3.23169588264712315e-01
2.94708370792248153e-01
2.62642773184270595e-01
2.28672286216679593e-01
1.94335155823951888e-01
1.60874866331586514e-01
1.29156261866135824e-01
9.96333081571085799e-02
7.23633211468763388e-02
4.70591691868840686e-02
2.31718453567609853e-02
0.00000000000000000e+00
0.00000000000000000e+00
1.80951755076205756e-02
3.67142019370892830e-02
5.63592912056646161e-02
7.74167395317471169e-02
1.00078943658502922e-01
1.24284963225891679e-01
1.49683601184290166e-01
1.75624804794823036e-01
2.01185193242711308e-01
2.25230869586499155e-01
2.46515520685808703e-01
2.63805165291662314e-01
2.76014437858796924e-01
2.82334877327253708e-01
2.82334877327253930e-01
2.76014437858796258e-01
2.63805165291661925e-01
2.46515520685809175e-01
2.25230869586499960e-01
2.01185193242712335e-01
1.75624804794823675e-01
1.49683601184290610e-01
1.24284963225891928e-01
1.00078943658502909e-01
7.74167395317472001e-02
5.63592912056646508e-02
3.67142019370893247e-02
1.80951755076205999e-02
0.00000000000000000e+00
0.00000000000000000e+00
1.37265074360344765e-02
2.78234376649163506e-02
4.26383552251247064e-02
5.84333092446044436e-02
7.53310701060372206e-02
9.32738130281233202e-02
1.11997965289723195e-01
1.31029477475164163e-01
1.49703348134745978e-01
1.67209197461073544e-01
1.82661097998252892e-01
1.95185382758060161e-01
2.04015853874106617e-01
2.08582943639827156e-01
2.08582943639827600e-01
2.04015853874106506e-01
1.95185382758059717e-01
1.82661097998253169e-01
1.67209197461074072e-01
1.49703348134746728e-01
1.31029477475164469e-01
1.11997965289723361e-01
9.32738130281232786e-02
7.53310701060372206e-02
5.84333092446044922e-02
4.26383552251247203e-02
2.78234376649163784e-02
1.37265074360345025e-02
0.00000000000000000e+00
0.00000000000000000e+00
1.00481014875538916e-02
2.03484050615293198e-02
3.11328847740587472e-02
4.25726699015566562e-02
5.47422046435225573e-02
6.75915693857606914e-02
8.09299983606215495e-02
9.44235881502475116e-02
1.07609633014439654e-01
1.19928529478328438e-01
1.30771778238041841e-01
1.39541684469841498e-01
1.45715607777886641e-01
1.48905819603881662e-01
1.48905819603881717e-01
1.45715607777886530e-01
1.39541684469841470e-01
1.30771778238042119e-01
1.19928529478328771e-01
1.07609633014439973e-01
9.44235881502476504e-02
8.09299983606214662e-02
6.75915693857606359e-02
5.47422046435225990e-02
4.25726699015567325e-02
3.11328847740588131e-02
2.03484050615293025e-02
1.00481014875538795e-02
0.00000000000000000e+00
0.00000000000000000e+00
6.97427928174335250e-03
1.41119122019418616e-02
2.15605658727709357e-02
2.94267969123911156e-02
3.77532011192184963e-02
4.65007373397570284e-02
5.55384374299605701e-02
6.46424903410029866e-02
7.35061824568633004e-02
8.17611438732051415e-02
8.90087980778987986e-02
9.48590866409617234e-02
9.89718581962196614e-02
1.01095241475546813e-01
1.01095241475546924e-01
9.89718581962197447e-02
9.48590866409616401e-02
8.90087980778988264e-02
8.17611438732052803e-02
7.35061824568632588e-02
6.46424903410030838e-02
5.55384374299605771e-02
4.65007373397570076e-02
3.77532011192185518e-02
2.94267969123911399e-02
2.15605658727709773e-02
1.41119122019418806e-02
6.97427928174335337e-03
0.00000000000000000e+00
0.00000000000000000e+00
4.37720121337447417e-03
8.85110500619926133e-03
1.35079424326621147e-02
1.84087180306706684e-02
2.35758210916800666e-02
2.89826763688128645e-02
3.45478419065127842e-02
4.01347513234710171e-02
4.55579336345278835e-02
5.05959007191227675e-02
5.50099771633408147e-02
5.85672977779282816e-02
6.10652479090823957e-02
6.23540317789844159e-02
6.23540317789844506e-02
6.10652479090824651e-02
5.85672977779283510e-02
5.50099771633408910e-02