<?xml version="1.0"?>
<VTKFile type="StructuredGrid">
<StructuredGrid WholeExtent="0 29 0 29 0 0 ">
<Piece Extent="0 29 0 29 0 0 ">
<Points>
<DataArray type="Float64" Name="coordinate" NumberOfComponents="3" format="ascii">
-2.00000000000000000e+00 -2.00000000000000000e+00 0 
-1.86206896551724133e+00 -2.00000000000000000e+00 0 
-1.72413793103448265e+00 -2.00000000000000000e+00 0 
-1.58620689655172420e+00 -2.00000000000000000e+00 0 
-1.44827586206896552e+00 -2.00000000000000000e+00 0 
-1.31034482758620685e+00 -2.00000000000000000e+00 0 
-1.17241379310344840e+00 -2.00000000000000000e+00 0 
-1.03448275862068950e+00 -2.00000000000000000e+00 0 
-8.96551724137931050e-01 -2.00000000000000000e+00 0 
-7.58620689655172376e-01 -2.00000000000000000e+00 0 
-6.20689655172413701e-01 -2.00000000000000000e+00 0 
-4.82758620689655249e-01 -2.00000000000000000e+00 0 
-3.44827586206896575e-01 -2.00000000000000000e+00 0 
-2.06896551724137900e-01 -2.00000000000000000e+00 0 
-6.89655172413792261e-02 -2.00000000000000000e+00 0 
6.89655172413794482e-02 -2.00000000000000000e+00 0 
2.06896551724137900e-01 -2.00000000000000000e+00 0 
3.44827586206896353e-01 -2.00000000000000000e+00 0 
4.82758620689655249e-01 -2.00000000000000000e+00 0 
6.20689655172413701e-01 -2.00000000000000000e+00 0 
7.58620689655172598e-01 -2.00000000000000000e+00 0 
8.96551724137931050e-01 -2.00000000000000000e+00 0 
1.03448275862068950e+00 -2.00000000000000000e+00 0 
1.17241379310344840e+00 -2.00000000000000000e+00 0 
1.31034482758620685e+00 -2.00000000000000000e+00 0 
1.44827586206896530e+00 -2.00000000000000000e+00 0 
1.58620689655172420e+00 -2.00000000000000000e+00 0 
1.72413793103448265e+00 -2.00000000000000000e+00 0 
1.86206896551724155e+00 -2.00000000000000000e+00 0 
2.00000000000000000e+00 -2.00000000000000000e+00 0 
-2.00000000000000000e+00 -1.86206896551724133e+00 0 
-1.86206896551724133e+00 -1.86206896551724133e+00 0 
-1.72413793103448265e+00 -1.86206896551724133e+00 0 
-1.58620689655172420e+00 -1.86206896551724133e+00 0 
-1.44827586206896552e+00 -1.86206896551724133e+00 0 
-1.31034482758620685e+00 -1.86206896551724133e+00 0 
-1.17241379310344840e+00 -1.86206896551724133e+00 0 
-1.03448275862068950e+00 -1.86206896551724133e+00 0 
-8.96551724137931050e-01 -1.86206896551724133e+00 0 
-7.58620689655172376e-01 -1.86206896551724133e+00 0 
-6.20689655172413701e-01 -1.86206896551724133e+00 0 
-4.82758620689655249e-01 -1.86206896551724133e+00 0 
-3.44827586206896575e-01 -1.86206896551724133e+00 0 
-2.06896551724137900e-01 -1.86206896551724133e+00 0 
-6.89655172413792261e-02 -1.86206896551724133e+00 0 
6.89655172413794482e-02 -1.86206896551724133e+00 0 
2.06896551724137900e-01 -1.86206896551724133e+00 0 
3.44827586206896353e-01 -1.86206896551724133e+00 0 
4.82758620689655249e-01 -1.86206896551724133e+00 0 
6.20689655172413701e-01 -1.86206896551724133e+00 0 
7.58620689655172598e-01 -1.86206896551724133e+00 0 
8.96551724137931050e-01 -1.86206896551724133e+00 0 
1.03448275862068950e+00 -1.86206896551724133e+00 0 
1.17241379310344840e+00 -1.86206896551724133e+00 0 
1.31034482758620685e+00 -1.86206896551724133e+00 0 
1.44827586206896530e+00 -1.86206896551724133e+00 0 
1.58620689655172420e+00 -1.86206896551724133e+00 0 
1.72413793103448265e+00 -1.86206896551724133e+00 0 
1.86206896551724155e+00 -1.86206896551724133e+00 0 
2.00000000000000000e+00 -1.86206896551724133e+00 0 
-2.00000000000000000e+00 -1.72413793103448265e+00 0 
-1.86206896551724133e+00 -1.72413793103448265e+00 0 
-1.72413793103448265e+00 -1.72413793103448265e+00 0 
-1.58620689655172420e+00 -1.72413793103448265e+00 0 
-1.44827586206896552e+00 -1.72413793103448265e+00 0 
-1.31034482758620685e+00 -1.72413793103448265e+00 0 
-1.17241379310344840e+00 -1.72413793103448265e+00 0 
-1.03448275862068950e+00 -1.72413793103448265e+00 0 
-8.96551724137931050e-01 -1.72413793103448265e+00 0 
-7.58620689655172376e-01 -1.72413793103448265e+00 0 
-6.20689655172413701e-01 -1.72413793103448265e+00 0 
-4.82758620689655249e-01 -1.72413793103448265e+00 0 
-3.44827586206896575e-01 -1.72413793103448265e+00 0 
-2.06896551724137900e-01 -1.72413793103448265e+00 0 
-6.89655172413792261e-02 -1.72413793103448265e+00 0 
6.89655172413794482e-02 -1.72413793103448265e+00 0 
2.06896551724137900e-01 -1.72413793103448265e+00 0 
3.44827586206896353e-01 -1.72413793103448265e+00 0 
4.82758620689655249e-01 -1.72413793103448265e+00 0 
6.20689655172413701e-01 -1.72413793103448265e+00 0 
7.58620689655172598e-01 -1.72413793103448265e+00 0 
8.96551724137931050e-01 -1.72413793103448265e+00 0 
1.03448275862068950e+00 -1.72413793103448265e+00 0 
1.17241379310344840e+00 -1.72413793103448265e+00 0 
1.31034482758620685e+00 -1.72413793103448265e+00 0 
1.44827586206896530e+00 -1.72413793103448265e+00 0 
1.58620689655172420e+00 -1.72413793103448265e+00 0 
1.72413793103448265e+00 -1.72413793103448265e+00 0 
1.86206896551724155e+00 -1.72413793103448265e+00 0 
2.00000000000000000e+00 -1.72413793103448265e+00 0 
-2.00000000000000000e+00 -1.58620689655172420e+00 0 
-1.86206896551724133e+00 -1.58620689655172420e+00 0 
-1.72413793103448265e+00 -1.58620689655172420e+00 0 
-1.58620689655172420e+00 -1.58620689655172420e+00 0 
-1.44827586206896552e+00 -1.58620689655172420e+00 0 
-1.31034482758620685e+00 -1.58620689655172420e+00 0 
-1.17241379310344840e+00 -1.58620689655172420e+00 0 
-1.03448275862068950e+00 -1.58620689655172420e+00 0 
-8.96551724137931050e-01 -1.58620689655172420e+00 0 
-7.58620689655172376e-01 -1.58620689655172420e+00 0 
-6.20689655172413701e-01 -1.58620689655172420e+00 0 
-4.82758620689655249e-01 -1.58620689655172420e+00 0 
-3.44827586206896575e-01 -1.58620689655172420e+00 0 
-2.06896551724137900e-01 -1.58620689655172420e+00 0 
-6.89655172413792261e-02 -1.58620689655172420e+00 0 
6.89655172413794482e-02 -1.58620689655172420e+00 0 
2.06896551724137900e-01 -1.58620689655172420e+00 0 
3.44827586206896353e-01 -1.58620689655172420e+00 0 
4.82758620689655249e-01 -1.58620689655172420e+00 0 
6.20689655172413701e-01 -1.58620689655172420e+00 0 
7.58620689655172598e-01 -1.58620689655172420e+00 0 
8.96551724137931050e-01 -1.58620689655172420e+00 0 
1.03448275862068950e+00 -1.58620689655172420e+00 0 
1.17241379310344840e+00 -1.58620689655172420e+00 0 
1.31034482758620685e+00 -1.58620689655172420e+00 0 
1.44827586206896530e+00 -1.58620689655172420e+00 0 
1.58620689655172420e+00 -1.58620689655172420e+00 0 
1.72413793103448265e+00 -1.58620689655172420e+00 0 
1.86206896551724155e+00 -1.58620689655172420e+00 0 
2.00000000000000000e+00 -1.58620689655172420e+00 0 
-2.00000000000000000e+00 -1.44827586206896552e+00 0 
-1.86206896551724133e+00 -1.44827586206896552e+00 0 
-1.72413793103448265e+00 -1.44827586206896552e+00 0 
-1.58620689655172420e+00 -1.44827586206896552e+00 0 
-1.44827586206896552e+00 -1.44827586206896552e+00 0 
-1.31034482758620685e+00 -1.44827586206896552e+00 0 
-1.17241379310344840e+00 -1.44827586206896552e+00 0 
-1.03448275862068950e+00 -1.44827586206896552e+00 0 
-8.96551724137931050e-01 -1.44827586206896552e+00 0 
-7.58620689655172376e-01 -1.44827586206896552e+00 0 
-6.20689655172413701e-01 -1.44827586206896552e+00 0 
-4.82758620689655249e-01 -1.44827586206896552e+00 0 
-3.44827586206896575e-01 -1.44827586206896552e+00 0 
-2.06896551724137900e-01 -1.44827586206896552e+00 0 
-6.89655172413792261e-02 -1.44827586206896552e+00 0 
6.89655172413794482e-02 -1.44827586206896552e+00 0 
2.06896551724137900e-01 -1.44827586206896552e+00 0 
3.44827586206896353e-01 -1.44827586206896552e+00 0 
4.82758620689655249e-01 -1.44827586206896552e+00 0 
6.20689655172413701e-01 -1.44827586206896552e+00 0 
7.58620689655172598e-01 -1.44827586206896552e+00 0 
8.96551724137931050e-01 -1.44827586206896552e+00 0 
1.03448275862068950e+00 -1.44827586206896552e+00 0 
1.17241379310344840e+00 -1.44827586206896552e+00 0 
1.31034482758620685e+00 -1.44827586206896552e+00 0 
1.44827586206896530e+00 -1.44827586206896552e+00 0 
1.58620689655172420e+00 -1.44827586206896552e+00 0 
1.72413793103448265e+00 -1.44827586206896552e+00 0 
1.86206896551724155e+00 -1.44827586206896552e+00 0 
2.00000000000000000e+00 -1.44827586206896552e+00 0 
-2.00000000000000000e+00 -1.31034482758620685e+00 0 
-1.86206896551724133e+00 -1.31034482758620685e+00 0 
-1.72413793103448265e+00 -1.31034482758620685e+00 0 
-1.58620689655172420e+00 -1.31034482758620685e+00 0 
-1.44827586206896552e+00 -1.31034482758620685e+00 0 
-1.31034482758620685e+00 -1.31034482758620685e+00 0 
-1.17241379310344840e+00 -1.31034482758620685e+00 0 
-1.03448275862068950e+00 -1.31034482758620685e+00 0 
-8.96551724137931050e-01 -1.31034482758620685e+00 0 
-7.58620689655172376e-01 -1.31034482758620685e+00 0 
-6.20689655172413701e-01 -1.31034482758620685e+00 0 
-4.82758620689655249e-01 -1.31034482758620685e+00 0 
-3.44827586206896575e-01 -1.31034482758620685e+00 0 
-2.06896551724137900e-01 -1.31034482758620685e+00 0 
-6.89655172413792261e-02 -1.31034482758620685e+00 0 
6.89655172413794482e-02 -1.31034482758620685e+00 0 
2.06896551724137900e-01 -1.31034482758620685e+00 0 
3.44827586206896353e-01 -1.31034482758620685e+00 0 
4.82758620689655249e-01 -1.31034482758620685e+00 0 
6.20689655172413701e-01 -1.31034482758620685e+00 0 
7.58620689655172598e-01 -1.31034482758620685e+00 0 
8.96551724137931050e-01 -1.31034482758620685e+00 0 
1.03448275862068950e+00 -1.31034482758620685e+00 0 
1.17241379310344840e+00 -1.31034482758620685e+00 0 
1.31034482758620685e+00 -1.31034482758620685e+00 0 
1.44827586206896530e+00 -1.31034482758620685e+00 0 
1.58620689655172420e+00 -1.31034482758620685e+00 0 
1.72413793103448265e+00 -1.31034482758620685e+00 0 
1.86206896551724155e+00 -1.31034482758620685e+00 0 
2.00000000000000000e+00 -1.31034482758620685e+00 0 
-2.00000000000000000e+00 -1.17241379310344840e+00 0 
-1.86206896551724133e+00 -1.17241379310344840e+00 0 
-1.72413793103448265e+00 -1.17241379310344840e+00 0 
-1.58620689655172420e+00 -1.17241379310344840e+00 0 
-1.44827586206896552e+00 -1.17241379310344840e+00 0 
-1.31034482758620685e+00 -1.17241379310344840e+00 0 
[...]
<PointData>
<DataArray type="Float64" Name="gaussian_hill" NumberOfComponents="1" format="ascii">
0.00000000000000000e+00
0.00000000000000000e+00
0.00000000000000000e+00
0.00000000000000000e+00
0.00000000000000000e+00
0.00000000000000000e+00
0.00000000000000000e+00
0.00000000000000000e+00
0.00000000000000000e+00
0.00000000000000000e+00
0.00000000000000000e+00
0.00000000000000000e+00
0.00000000000000000e+00
0.00000000000000000e+00
0.00000000000000000e+00
0.00000000000000000e+00
0.00000000000000000e+00
0.00000000000000000e+00
0.00000000000000000e+00
0.00000000000000000e+00
0.00000000000000000e+00
0.00000000000000000e+00
0.00000000000000000e+00
0.00000000000000000e+00
0.00000000000000000e+00
0.00000000000000000e+00
0.00000000000000000e+00
0.00000000000000000e+00
0.00000000000000000e+00
0.00000000000000000e+00
0.00000000000000000e+00
3.02115196465388208e-03
6.01299650150329858e-03
8.94593377427319036e-03
1.17898480044054677e-02
1.45140143570444032e-02
1.70871838049955066e-02
1.94778741886658877e-02
2.16548728470761162e-02
2.35879321076290262e-02
2.52486160633250099e-02
2.66112378840014825e-02
2.76538135618693871e-02
2.83589520903331956e-02
2.87146044599721137e-02
2.87146044599720721e-02
2.83589520903331886e-02
2.76538135618692206e-02
2.66112378840014652e-02
2.52486160633248538e-02
2.35879321076290990e-02
2.16548728470760746e-02
1.94778741886658564e-02
1.70871838049953574e-02
1.45140143570443303e-02
1.17898480044054850e-02
8.94593377427311924e-03
6.01299650150334455e-03
3.02115196465382700e-03
0.00000000000000000e+00
0.00000000000000000e+00
6.01886292915430453e-03
1.19793835319749100e-02
1.78226317928220981e-02
2.34886400426397475e-02
2.89162137996504635e-02
3.40430985437045197e-02
3.88065588993203245e-02
4.31443810396174368e-02
4.69962609622801702e-02
5.03054955722458536e-02
5.30208551312141008e-02
5.50984889224751667e-02
5.65037041545917648e-02
5.72124628771335103e-02
5.72124628771333785e-02
5.65037041545912583e-02
5.50984889224748683e-02
5.30208551312141077e-02
5.03054955722458119e-02
4.69962609622800523e-02
4.31443810396172217e-02
3.88065588993201024e-02
3.40430985437044156e-02
2.89162137996504184e-02
2.34886400426396989e-02
1.78226317928219108e-02
1.19793835319748979e-02
6.01886292915424902e-03
0.00000000000000000e+00
0.00000000000000000e+00
8.96873874538524005e-03
1.78506496720483993e-02
2.65580168979935999e-02
3.50015548644958749e-02
4.30901176947529260e-02
5.07309421926835855e-02
5.78305092553820996e-02
6.42960400601347570e-02
7.00375712061814676e-02
7.49704844467968395e-02
7.90183090825473528e-02
8.21155749888802522e-02
8.42104764667248457e-02
8.52671141781644465e-02
8.52671141781644881e-02
8.42104764667246791e-02
8.21155749888800024e-02
7.90183090825473250e-02
7.49704844467969506e-02
7.00375712061812455e-02
6.42960400601344517e-02
5.78305092553817665e-02
5.07309421926835508e-02
4.30901176947526207e-02
3.50015548644957292e-02
2.65580168979934889e-02
1.78506496720483090e-02
8.96873874538530423e-03
0.00000000000000000e+00
0.00000000000000000e+00
1.18446112914912804e-02
2.35747433818131805e-02
3.50747225612158958e-02
4.62267609020924272e-02
5.69105570072954911e-02
6.70036072405104099e-02
7.63823404847646797e-02
8.49240984760148560e-02
9.25098877028262268e-02
9.90277375972958285e-02
1.04376423046562167e-01
1.08469255780625509e-01
1.11237625416043276e-01
1.12633980268697614e-01
1.12633980268697823e-01
1.11237625416043165e-01
1.08469255780625523e-01
1.04376423046562000e-01
9.90277375972957313e-02
9.25098877028259076e-02
8.49240984760145645e-02
7.63823404847642773e-02
6.70036072405099797e-02
5.69105570072952135e-02
4.62267609020921427e-02
3.50747225612158681e-02
2.35747433818131215e-02
1.18446112914911972e-02
0.00000000000000000e+00
0.00000000000000000e+00
1.46179701341072662e-02
2.90949381709424415e-02
4.32883957250838336e-02
5.70531641574283099e-02
7.02408790217062956e-02
8.27003598226238174e-02
9.42790062150548058e-02
1.04825248506921140e-01
1.14191960701207115e-01
1.22240630578255113e-01
1.28845985668891438e-01
1.33900707205817732e-01
1.37319834368106047e-01
1.39044472639972994e-01
1.39044472639972910e-01
1.37319834368106714e-01
1.33900707205817759e-01
1.28845985668891494e-01
1.22240630578254517e-01
1.14191960701206699e-01
1.04825248506920932e-01
9.42790062150545144e-02
8.27003598226235259e-02
7.02408790217057821e-02
5.70531641574280116e-02
4.32883957250835838e-02
2.90949381709424901e-02
1.46179701341074188e-02
0.00000000000000000e+00
0.00000000000000000e+00
1.72577432132684644e-02
3.43493936081971998e-02
5.11070377203939816e-02
6.73595291275741470e-02
8.29318496762575935e-02
9.76455270701967748e-02
1.11320277568169604e-01
1.23776907551720133e-01
1.34841365068288588e-01
1.44349696731164351e-01
1.52153551116668534e-01
1.58125789962296426e-01
1.62165732751434227e-01
1.64203573835907585e-01
1.64203573835907807e-01
1.62165732751434200e-01
1.58125789962296232e-01
1.52153551116668589e-01
1.44349696731164462e-01
1.34841365068288671e-01
1.23776907551719842e-01
1.11320277568169229e-01
9.76455270701965666e-02
8.29318496762572327e-02
6.73595291275738556e-02
5.11070377203938081e-02
3.43493936081969986e-02
1.72577432132684123e-02
0.00000000000000000e+00
0.00000000000000000e+00
1.97304894282466364e-02
3.92715376145497674e-02
5.84315706040602345e-02
7.70152209238726126e-02
9.48225608580312018e-02
1.11649556950623896e-01
1.27289941244980165e-01
1.41538538909708411e-01
1.54195927084394280e-01
1.65074142850993949e-01
1.74003026031566810e-01
1.80836690003719686e-01
1.85459572197893052e-01
1.87791531425264391e-01
1.87791531425264779e-01
1.85459572197893358e-01
1.80836690003719630e-01
1.74003026031567032e-01
1.65074142850993699e-01
1.54195927084393919e-01
1.41538538909707856e-01
1.27289941244979499e-01
1.11649556950623688e-01
9.48225608580306051e-02
7.70152209238722379e-02
5.84315706040599778e-02
3.92715376145496842e-02
1.97304894282464664e-02
0.00000000000000000e+00
0.00000000000000000e+00
2.20010246637643951e-02
4.37913131021633040e-02
6.51576934460805640e-02
8.58826544376782158e-02
1.05743449548206539e-01
1.24512578023432310e-01
1.41959863766813882e-01
1.57856177462796510e-01
1.71978661623460288e-01
1.84117141282751029e-01
1.94081253848008811e-01
2.01707727074319082e-01
2.06867187040764178e-01
2.09469895243772186e-01
2.09469895243772047e-01
2.06867187040764094e-01
2.01707727074318444e-01
1.94081253848008839e-01
1.84117141282750751e-01
1.71978661623459678e-01
1.57856177462795844e-01
1.41959863766813493e-01
1.24512578023431839e-01
1.05743449548205790e-01
8.58826544376776052e-02
6.51576934460800089e-02
4.37913131021630403e-02
2.20010246637643569e-02
0.00000000000000000e+00
0.00000000000000000e+00
2.40334570932282249e-02
4.78372409117834019e-02
7.11789571904601903e-02
9.38213566788708431e-02
1.15521313539257389e-01
1.36030323776520523e-01
1.55096768069174135e-01
1.72469989851778693e-01
1.87906034594279681e-01
2.01174700844750420e-01
2.12067388716058680e-01
2.20405115833011006e-01
2.26046018497389090e-01
2.28891674621859942e-01
2.28891674621859942e-01
2.26046018497388368e-01
2.20405115833010451e-01
2.12067388716058264e-01
2.01174700844749449e-01
1.87906034594278543e-01
1.72469989851777944e-01
1.55096768069173635e-01
1.36030323776520135e-01
1.15521313539256668e-01
9.38213566788702047e-02
7.11789571904596630e-02
4.78372409117830411e-02
2.40334570932280445e-02
0.00000000000000000e+00
0.00000000000000000e+00
2.57925617672864517e-02
5.13391596065259012e-02
7.63908503035426595e-02
1.00693367869027897e-01
1.23985985050463710e-01
1.46002021713381391e-01
1.66471265340818381e-01
1.85124359458359949e-01
2.01698993900852469e-01
2.15947519124811804e-01
2.27645427963440172e-01
2.36600022654663095e-01
2.42658528078178615e-01
2.45714932270014869e-01
2.45714932270015118e-01
2.42658528078177421e-01
2.36600022654661568e-01
2.27645427963438590e-01
2.15947519124809695e-01
2.01698993900850665e-01
1.85124359458358562e-01
1.66471265340817576e-01
1.46002021713381169e-01
1.23985985050462877e-01
1.00693367869027023e-01
7.63908503035422015e-02
5.13391596065256584e-02
2.57925617672863858e-02
0.00000000000000000e+00
0.00000000000000000e+00
2.72453834318709918e-02
5.42314207513272598e-02
8.06955650555254422e-02
1.06369544765843468e-01
1.30978122769402350e-01
1.54239609332937871e-01
1.75868411699857424e-01
1.95579680447420884e-01
2.13095876486266905e-01
2.28154857100734243e-01
2.40518888865247416e-01
2.49983861325234868e-01
2.56387914493272473e-01
2.59618714442293674e-01
2.59618714442293119e-01
2.56387914493270475e-01
2.49983861325233037e-01
2.40518888865245417e-01
2.28154857100731800e-01
2.13095876486265129e-01
1.95579680447419385e-01
1.75868411699855981e-01
1.54239609332937233e-01
1.30978122769401684e-01
1.06369544765842594e-01
8.06955650555248316e-02
5.42314207513269475e-02
2.72453834318707525e-02
0.00000000000000000e+00
0.00000000000000000e+00
2.83629252505422022e-02
5.64562558863688779e-02
8.40070209675956719e-02
1.10736205935377127e-01
1.36357429333620966e-01
1.60577456887312092e-01
1.83098849697392846e-01
2.03624810024723019e-01
2.21866040765605843e-01
2.37549198466167538e-01
2.50426319953448051e-01
2.60284462140339234e-01
2.66954730617568858e-01
2.70319894717243825e-01
2.70319894717243048e-01
2.66954730617566582e-01
2.60284462140336736e-01
2.50426319953445276e-01
2.37549198466165457e-01
2.21866040765603956e-01
2.03624810024721548e-01
1.83098849697392208e-01
1.60577456887311315e-01
1.36357429333620078e-01
1.10736205935376281e-01
8.40070209675949087e-02
5.64562558863684477e-02
2.83629252505419108e-02
0.00000000000000000e+00
0.00000000000000000e+00
2.91217640937825629e-02
5.79669974059208032e-02
8.62556710474557398e-02
1.13701491014577674e-01
1.40010517096589293e-01
1.64881676576025926e-01
1.88009479017292175e-01
2.09088997978360031e-01
2.27822930434774917e-01
2.43930301046414222e-01
2.57156172294430885e-01
2.67281576466959159e-01
2.74132819382102266e-01
2.77589328376030731e-01
2.77589328376030731e-01
2.74132819382100157e-01
2.67281576466956161e-01
2.57156172294428553e-01
2.43930301046411918e-01
2.27822930434773585e-01
2.09088997978358726e-01
1.88009479017291870e-01
1.64881676576025482e-01
1.40010517096588349e-01
1.13701491014576855e-01
8.62556710474551153e-02
5.79669974059202689e-02
2.91217640937822889e-02
0.00000000000000000e+00
0.00000000000000000e+00
2.95054334054406196e-02
5.87308361889509536e-02
8.73926172439072196e-02
1.15200806830654909e-01
1.41857645679553307e-01
1.67058098136643796e-01
1.90492600511129345e-01
2.11852111670994991e-01
2.30835273980227323e-01
2.47157245241139301e-01
2.60559552974538866e-01
2.70820175012046749e-01
2.77762983188375334e-01
2.81265709846930390e-01
2.81265709846930112e-01
2.77762983188374668e-01
2.70820175012044806e-01
2.60559552974536313e-01
2.47157245241137025e-01
2.30835273980224576e-01
2.11852111670993659e-01
1.90492600511127846e-01
1.67058098136642685e-01
1.41857645679552169e-01
1.15200806830653840e-01
8.73926172439064286e-02
5.87308361889503430e-02
2.95054334054403039e-02
0.00000000000000000e+00
0.00000000000000000e+00
2.95054334054407272e-02
5.87308361889508912e-02
8.73926172439073862e-02
1.15200806830655256e-01
1.41857645679553807e-01
1.67058098136643990e-01
1.90492600511129262e-01
2.11852111670995324e-01
2.30835273980227518e-01
2.47157245241138579e-01
2.60559552974538144e-01
2.70820175012046249e-01
2.77762983188375445e-01
2.81265709846930445e-01
2.81265709846930279e-01
2.77762983188374557e-01
2.70820175012044584e-01
2.60559552974536146e-01
2.47157245241137191e-01
2.30835273980224631e-01
2.11852111670993465e-01
1.90492600511127680e-01
1.67058098136642658e-01
1.41857645679552169e-01
1.15200806830654132e-01
8.73926172439062482e-02
5.87308361889501904e-02
2.95054334054403317e-02
0.00000000000000000e+00
0.00000000000000000e+00
2.91217640937826011e-02
5.79669974059209836e-02
8.62556710474558924e-02
1.13701491014578285e-01
1.40010517096589987e-01
1.64881676576026676e-01
1.88009479017292674e-01
2.09088997978360530e-01
2.27822930434776028e-01
2.43930301046413833e-01
2.57156172294430607e-01
2.67281576466958604e-01
2.74132819382101878e-01
2.77589328376031563e-01
2.77589328376031674e-01
2.74132819382100934e-01
2.67281576466957105e-01
2.57156172294428664e-01
2.43930301046411752e-01
2.27822930434773530e-01
2.09088997978358337e-01
1.88009479017291231e-01
1.64881676576025010e-01
1.40010517096588544e-01
1.13701491014576675e-01
8.62556710474550320e-02
5.79669974059202897e-02
2.91217640937822993e-02
0.00000000000000000e+00
0.00000000000000000e+00
2.83629252505422577e-02
5.64562558863691000e-02
8.40070209675956719e-02
1.10736205935377433e-01
1.36357429333621688e-01
1.60577456887312953e-01
1.83098849697393623e-01
2.03624810024723296e-01
2.21866040765605760e-01
2.37549198466166817e-01
2.50426319953447996e-01
2.60284462140338735e-01
2.66954730617568470e-01
2.70319894717243769e-01
2.70319894717243436e-01
2.66954730617567526e-01
2.60284462140337070e-01
2.50426319953445997e-01
2.37549198466164901e-01
2.21866040765603678e-01
2.03624810024721714e-01
1.83098849697391458e-01
1.60577456887310704e-01
1.36357429333619967e-01
1.10736205935376225e-01
8.40070209675946172e-02
5.64562558863683853e-02
2.83629252505419142e-02
0.00000000000000000e+00
0.00000000000000000e+00
2.72453834318710821e-02
5.42314207513273638e-02
8.06955650555253590e-02
1.06369544765843607e-01
1.30978122769403571e-01
1.54239609332939093e-01
1.75868411699857924e-01
1.95579680447420301e-01
2.13095876486266489e-01
2.28154857100733188e-01
2.40518888865247110e-01
2.49983861325234397e-01
2.56387914493271196e-01
2.59618714442292842e-01
2.59618714442292287e-01
2.56387914493270475e-01
2.49983861325233564e-01
2.40518888865245473e-01
2.28154857100731301e-01
2.13095876486264241e-01
1.95579680447418081e-01
1.75868411699855481e-01
1.54239609332937011e-01
1.30978122769401434e-01
1.06369544765841914e-01
8.06955650555244847e-02
5.42314207513269267e-02
2.72453834318708218e-02
0.00000000000000000e+00
0.00000000000000000e+00
2.57925617672865870e-02
5.13391596065261024e-02
7.63908503035429093e-02
1.00693367869027939e-01
1.23985985050464126e-01
1.46002021713382640e-01
1.66471265340819047e-01
1.85124359458359616e-01
2.01698993900852441e-01
2.15947519124811638e-01
2.27645427963440589e-01
2.36600022654663456e-01
2.42658528078177865e-01
2.45714932270014258e-01
2.45714932270013731e-01
2.42658528078176922e-01
2.36600022654662345e-01
2.27645427963439118e-01
2.15947519124809695e-01
2.01698993900850054e-01
1.85124359458357507e-01
1.66471265340816466e-01
1.46002021713380226e-01
1.23985985050462238e-01
1.00693367869026315e-01
7.63908503035417435e-02
5.13391596065254849e-02
2.57925617672862990e-02
0.00000000000000000e+00
0.00000000000000000e+00
2.40334570932282561e-02
4.78372409117835407e-02
7.11789571904603846e-02
9.38213566788711761e-02
1.15521313539258028e-01
1.36030323776521744e-01
1.55096768069175078e-01
1.72469989851779498e-01
1.87906034594279903e-01
2.01174700844751447e-01
2.12067388716059818e-01
2.20405115833012227e-01
2.26046018497389700e-01
2.28891674621859526e-01
2.28891674621859165e-01
2.26046018497388368e-01
2.20405115833011006e-01
2.12067388716058264e-01
2.01174700844748727e-01
1.87906034594277238e-01
1.72469989851776417e-01
1.55096768069172386e-01
1.36030323776519441e-01
1.15521313539255890e-01
9.38213566788696079e-02
7.11789571904594132e-02
4.78372409117829023e-02
2.40334570932279647e-02
0.00000000000000000e+00
0.00000000000000000e+00
2.20010246637645582e-02
4.37913131021633803e-02
6.51576934460806889e-02
8.58826544376782297e-02
1.05743449548206914e-01
1.24512578023433004e-01
1.41959863766814742e-01
1.57856177462797120e-01
1.71978661623460177e-01
1.84117141282751418e-01
1.94081253848009588e-01
2.01707727074320053e-01
2.06867187040765399e-01
2.09469895243772714e-01
2.09469895243771520e-01
2.06867187040764011e-01
2.01707727074318277e-01
1.94081253848008506e-01
1.84117141282750141e-01
1.71978661623458373e-01
1.57856177462794428e-01
1.41959863766812050e-01
1.24512578023431006e-01
1.05743449548205679e-01
8.58826544376772721e-02
6.51576934460799534e-02
4.37913131021629015e-02
2.20010246637641869e-02
0.00000000000000000e+00
0.00000000000000000e+00
1.97304894282466989e-02
3.92715376145499340e-02
5.84315706040606855e-02
7.70152209238728763e-02
9.48225608580315210e-02
1.11649556950624521e-01
1.27289941244980304e-01
1.41538538909708939e-01
1.54195927084394391e-01
1.65074142850993921e-01
1.74003026031567282e-01
1.80836690003720629e-01
1.85459572197894301e-01
1.87791531425265501e-01
1.87791531425265223e-01
1.85459572197893718e-01
1.80836690003719491e-01
1.74003026031566782e-01
1.65074142850993311e-01
1.54195927084393059e-01
1.41538538909707051e-01
1.27289941244978555e-01
1.11649556950622966e-01
9.48225608580304247e-02
7.70152209238720575e-02
5.84315706040599500e-02
3.92715376145494413e-02
1.97304894282465115e-02
0.00000000000000000e+00
0.00000000000000000e+00
1.72577432132685858e-02
3.43493936081974011e-02
5.11070377203944326e-02
6.73595291275745633e-02
8.29318496762581764e-02
9.76455270701972189e-02
1.11320277568169868e-01
1.23776907551720480e-01
1.34841365068289004e-01
1.44349696731164601e-01
1.52153551116668867e-01
1.58125789962296842e-01
1.62165732751435060e-01
1.64203573835908445e-01
1.64203573835908417e-01
1.62165732751434977e-01
1.58125789962296315e-01
1.52153551116668589e-01
1.44349696731164379e-01
1.34841365068288366e-01
1.23776907551719897e-01
1.11320277568168924e-01
9.76455270701965111e-02
8.29318496762572605e-02
6.73595291275740221e-02
5.11070377203937110e-02
3.43493936081971027e-02
1.72577432132684366e-02
0.00000000000000000e+00
0.00000000000000000e+00
1.46179701341074882e-02
2.90949381709427919e-02
4.32883957250841042e-02
5.70531641574287818e-02
7.02408790217067536e-02
8.27003598226240672e-02
9.42790062150553332e-02
1.04825248506921764e-01
1.14191960701207795e-01
1.22240630578255488e-01
1.28845985668891994e-01
1.33900707205818315e-01
1.37319834368106686e-01
1.39044472639973410e-01
1.39044472639973216e-01
1.37319834368106491e-01
1.33900707205817759e-01
1.28845985668891660e-01
1.22240630578255016e-01
1.14191960701207129e-01
1.04825248506921292e-01
9.42790062150549862e-02
8.27003598226238312e-02
7.02408790217060597e-02
5.70531641574283724e-02
4.32883957250839099e-02
2.90949381709424033e-02
1.46179701341072089e-02
0.00000000000000000e+00
0.00000000000000000e+00
1.18446112914913238e-02
2.35747433818133643e-02
3.50747225612162775e-02
4.62267609020927533e-02
5.69105570072960393e-02
6.70036072405107014e-02
7.63823404847649712e-02
8.49240984760152029e-02
9.25098877028266570e-02
9.90277375972961338e-02
1.04376423046562500e-01
1.08469255780626161e-01
1.11237625416043609e-01
1.12633980268697739e-01
1.12633980268697614e-01
1.11237625416043207e-01
1.08469255780625468e-01
1.04376423046562444e-01
9.90277375972959950e-02
9.25098877028262268e-02
8.49240984760150919e-02
7.63823404847650544e-02
6.70036072405103822e-02
5.69105570072956299e-02
4.62267609020924827e-02
3.50747225612159652e-02
2.35747433818131805e-02
1.18446112914913342e-02
0.00000000000000000e+00
0.00000000000000000e+00
8.96873874538529729e-03
1.78506496720485103e-02
2.65580168979938462e-02
3.50015548644962426e-02
4.30901176947532799e-02
5.07309421926840920e-02
5.78305092553823216e-02
6.42960400601348819e-02
7.00375712061817590e-02
7.49704844467969228e-02
7.90183090825475193e-02
8.21155749888801967e-02
8.42104764667249844e-02
8.52671141781643493e-02
8.52671141781643632e-02
8.42104764667247901e-02
8.21155749888800718e-02
7.90183090825476442e-02
7.49704844467972142e-02
7.00375712061817035e-02
6.42960400601349236e-02
5.78305092553823771e-02
5.07309421926838769e-02
4.30901176947528358e-02
3.50015548644959720e-02
2.65580168979937560e-02
1.78506496720484617e-02
8.96873874538527821e-03
0.00000000000000000e+00
0.00000000000000000e+00
6.01886292915436265e-03
1.19793835319749378e-02
1.78226317928221745e-02
2.34886400426399695e-02
2.89162137996507342e-02
3.40430985437049083e-02
3.88065588993205049e-02
4.31443810396175270e-02
4.69962609622802258e-02
5.03054955722457356e-02
5.30208551312138440e-02
5.50984889224747434e-02
5.65037041545914179e-02
5.72124628771334409e-02
5.72124628771332536e-02
5.65037041545914387e-02
5.50984889224750210e-02
5.30208551312141424e-02